# vtk DataFile Version 3.0
vtk output
ASCII
DATASET UNSTRUCTURED_GRID
POINTS 11344 float
106.57891083 -74.50904083 -0.58050901
106.84690857 -74.35604095 1.10249305
106.78890991 -74.46204376 0.61949301
106.83991241 -74.26804352 1.59049201
106.77991486 -74.76804352 2.17749190
106.65290833 -74.12104797 1.33849299
106.69390869 -74.12804413 -0.72550601
106.85491180 -74.31504822 -0.27350599
106.84690857 -74.26203918 -0.75450897
106.72691345 -74.12403870 1.73149300
106.45491028 -74.41404724 3.29349303
106.82291412 -74.21604156 0.48849100
106.79591370 -74.45904541 -0.23450901
106.85591125 -74.31404114 -0.77250701
106.82891083 -74.41404724 -0.05550800
106.60890961 -74.11404419 2.79749298
106.89891052 -74.20603943 2.34449196
106.81491089 -74.75804138 2.35149193
106.84991455 -74.28104401 0.12049100
106.84391022 -74.26603699 0.88249201
106.68090820 -74.12704468 -1.82350898
106.83991241 -74.24604797 -1.07750702
106.92491150 -74.11303711 2.51349306
106.79691315 -74.18704224 1.28949201
106.91091156 -74.41604614 2.12649298
106.77690887 -74.47904205 -0.51150900
106.69190979 -74.51704407 1.47849298
106.89391327 -74.11804199 2.41049194
106.83891296 -74.25504303 3.09449196
106.97291565 -74.52604675 1.97149301
106.70291138 -74.12904358 0.62449300
106.77091217 -74.52804565 3.45949197
106.52790833 -74.15804291 0.57249302
106.84891510 -74.28104401 0.28349301
106.44991302 -74.38104248 3.35849190
106.85091400 -74.35304260 -0.25550801
106.37490845 -74.27703857 2.06649208
106.83891296 -74.25004578 0.63549203
106.82291412 -74.43203735 -1.45750797
106.79791260 -74.18304443 -0.54050797
106.85491180 -74.33303833 -0.70150799
106.89491272 -74.13404083 1.96749306
106.82091522 -74.22204590 2.69649291
106.78990936 -74.46204376 0.58149302
106.93391418 -74.44303894 2.15949202
106.63291168 -74.52004242 1.37249196
106.91091156 -74.41604614 2.10349298
106.81690979 -74.75704193 2.20449305
106.84991455 -74.27903748 -0.91550797
106.72891235 -74.49204254 3.38749290
106.64491272 -74.52404785 -0.18250699
106.77091217 -74.48104095 -0.04850800
106.76091003 -74.48704529 0.11749300
106.89591217 -74.15203857 2.24449301
106.62290955 -74.51904297 1.47849298
106.83691406 -74.43404388 1.87049305
106.36391449 -74.18304443 2.20349312
106.75691223 -74.15203857 -1.42050600
106.95790863 -74.65704346 1.95349300
106.73291016 -74.08503723 1.94149196
106.85391235 -74.33404541 -0.23750700
106.81091309 -74.19704437 -0.86350602
106.89990997 -74.22303772 2.32149291
106.90090942 -74.28504181 -1.73250604
106.45391083 -73.94604492 1.96849298
106.30791473 -74.62603760 1.95149195
106.83591461 -74.00304413 2.43449211
106.84690857 -74.26304626 -0.20250700
106.84991455 -74.27804565 -1.22250700
107.01091003 -74.09603882 1.96849298
106.82191467 -74.21804810 1.10149205
106.82191467 -74.43203735 -1.36350596
106.67890930 -74.10404205 3.46249199
106.87591553 -74.26403809 3.38649201
106.52590942 -74.15704346 3.54249191
106.81091309 -74.43804169 0.78549200
106.91690826 -74.27004242 1.96949196
106.96990967 -74.59803772 2.07449293
106.83891296 -74.39304352 -0.02050800
106.82391357 -74.41703796 1.05449295
106.89191437 -74.06504822 2.12149191
106.73490906 -74.13903809 -0.41450900
106.49191284 -74.11103821 1.91449201
106.98691559 -74.18704224 1.96849298
106.82691193 -74.16703796 2.87049294
106.91590881 -74.43404388 2.33949304
106.76190948 -74.60204315 2.13749290
106.82591248 -74.41604614 0.64649200
106.83991241 -74.39304352 -0.23650700
106.81191254 -74.66304016 2.19149208
106.84490967 -74.26403809 0.39349401
106.91791534 -74.63104248 1.92449200
106.90391541 -74.27404785 2.20649290
106.85291290 -74.29804230 -0.14850600
106.91590881 -74.43304443 2.29149199
106.84191132 -74.26804352 1.96249199
107.04691315 -74.61103821 1.96849298
106.78191376 -74.16804504 -0.27150699
106.83090973 -74.22804260 -1.92250800
106.96291351 -74.67404175 1.93049204
106.85391235 -74.31604004 0.03049100
106.80891418 -74.43904114 1.08049202
106.83190918 -74.22904205 -1.11450601
106.69591522 -74.12804413 -0.50550801
106.83991241 -74.38104248 3.31749296
106.91690826 -74.55904388 2.48149300
106.72791290 -74.13804626 -1.48250604
106.83491516 -74.41004181 -1.81650901
106.85291290 -74.29504395 -1.53750598
106.78291321 -74.16903687 0.03549200
106.57591248 -74.12603760 -0.00150700
106.77790833 -74.16703796 -1.12050605
106.84490967 -74.28504181 1.52649295
106.69691467 -74.12804413 -0.35950899
106.47291565 -74.21604156 2.80849290
106.87891388 -73.99604797 1.94149196
106.85591125 -74.57604218 1.92449200
106.70991516 -74.52004242 3.37449288
106.70491028 -74.13004303 1.03449202
106.82691193 -74.41503906 0.36549401
106.76091003 -74.15304565 -0.50550801
106.56790924 -74.12704468 1.43449199
106.76091003 -74.15304565 -0.41550800
106.81890869 -74.22004700 1.85649300
106.78791046 -74.42904663 2.80149293
106.76791382 -74.48403931 -0.54350698
106.83991241 -74.24604797 -1.24150801
106.82091522 -74.41903687 1.63449299
106.83791351 -74.39404297 0.32549301
106.81990814 -74.43304443 -1.08650601
106.42790985 -74.34104156 3.18849206
106.84791565 -74.37104797 -0.72050899
106.33090973 -74.35903931 1.36249399
106.97991180 -74.55904388 1.95049298
106.78791046 -74.48603821 3.68749189
106.79190826 -74.18104553 -1.89250600
106.91490936 -74.48904419 2.32449293
106.81191254 -74.19904327 0.01449200
106.83391571 -74.41104126 -1.34150696
106.41590881 -74.34704590 -0.19450800
106.88091278 -74.62504578 2.51449203
106.72391510 -74.13804626 -1.83150899
106.85191345 -74.41404724 2.83549309
106.52490997 -74.47404480 -1.26850903
106.40391541 -74.25103760 -0.24350700
106.78091431 -74.16703796 -0.54050797
106.84991455 -74.30104065 0.86349303
106.89191437 -74.08303833 2.35949302
106.83791351 -74.43604279 3.35849190
106.84091187 -74.23803711 3.50249290
106.82191467 -74.43203735 -1.32650805
106.84291077 -74.26603699 0.99949300
106.88991547 -74.31204224 1.78749299
106.84791565 -74.25404358 3.43749189
106.89491272 -74.15304565 2.34049201
106.83491516 -74.40904236 -0.71050602
106.78591156 -74.44604492 3.60549212
106.84690857 -74.35604095 0.92549300
106.72391510 -74.51203918 -1.10750604
106.88191223 -74.37004089 2.94249296
106.85291290 -74.35104370 -0.75550801
106.90190887 -74.33804321 -1.73550797
106.84991455 -74.30104065 1.05849302
106.85091400 -74.27903748 -0.61150700
106.81591034 -74.71903992 2.13749290
107.02690887 -73.97303772 1.97149301
106.84690857 -74.26203918 -0.50450897
106.83891296 -74.39304352 0.03349300
106.91390991 -74.47004700 2.17949295
106.85291290 -74.33503723 0.33949301
106.84191132 -74.45304108 2.79449296
106.81091309 -74.20004272 0.45349100
106.80590820 -74.45404053 -1.82850599
106.71391296 -74.51403809 -0.31450701
107.05590820 -74.62804413 1.94449198
106.79691315 -74.18203735 -0.75650799
106.85191345 -74.32304382 3.09449196
106.85591125 -74.31504822 -0.22050899
106.90190887 -74.25704193 2.39749289
106.90591431 -74.34504700 2.40549302
106.79791260 -74.18304443 -0.21850599
106.81690979 -74.22404480 3.45949197
106.88890839 -74.59704590 2.33849311
106.36491394 -74.18304443 2.29049301
106.85491180 -74.33303833 -0.71950901
106.73490906 -74.14004517 -0.36050799
106.83891296 -74.39304352 -0.05650700
106.52291107 -74.16804504 -1.56450701
106.89191437 -74.10104370 2.45849204
106.84891510 -74.28104401 0.13849300
106.84191132 -74.39103699 -1.04550600
106.73691559 -74.14004517 0.00249100
106.79491425 -74.47004700 3.18249297
106.82191467 -74.21304321 -1.17050600
106.66390991 -74.55503845 2.79549193
106.76091003 -74.15304565 -0.54150802
106.84590912 -74.26304626 -0.30950901
106.57691193 -74.50704193 -0.44850901
106.84991455 -74.82404327 2.19849205
106.83090973 -74.39904785 1.80249202
106.77391052 -74.48204041 -1.11250699
106.52590942 -74.15904236 -0.02550900
106.90991211 -74.39904785 2.33849311
106.76791382 -74.48403931 -0.59850699
106.79291534 -74.46003723 0.09449400
106.79791260 -74.18304443 -0.37950900
106.89291382 -74.10104370 2.43349290
106.80991364 -74.20204163 1.10449195
106.82491302 -74.41703796 0.72349203
106.83491516 -74.22004700 3.35349298
106.74191284 -74.18203735 2.77049303
106.85391235 -74.29604340 -1.09550905
106.64591217 -74.12104797 0.75349200
106.77490997 -74.48104095 -1.13150799
106.70891571 -74.13104248 1.72449303
106.82191467 -74.16903687 3.38549209
106.84091187 -74.24703979 -0.22050899
106.90190887 -74.28504181 -1.75150704
106.83391571 -74.23004150 -0.45150799
106.84291077 -74.39004517 -1.41350603
106.85191345 -74.33604431 0.48749200
106.91690826 -74.57704163 2.40949202
106.81690979 -74.79604340 2.38249207
106.76290894 -74.15604401 1.07749200
106.84091187 -74.24804688 0.08449200
106.84891510 -74.28204346 0.37549201
106.91590881 -74.52503967 2.45149207
106.85291290 -74.31704712 0.41249099
106.84091187 -74.41804504 3.35249305
106.69891357 -74.11904144 -0.28250900
106.85890961 -74.28604126 3.65149307
106.45491028 -74.42704773 2.92149401
106.82291412 -74.21604156 0.14049099
106.82591248 -74.20104218 1.94149196
106.64691162 -74.52604675 3.55949211
106.88991547 -74.47504425 1.91649199
106.81191254 -74.19804382 -0.32650799
106.84891510 -74.37104797 -0.79150802
106.78791046 -74.47404480 -1.43950701
106.78291321 -74.46604156 1.83249295
106.73891449 -74.14103699 0.37149400
106.84191132 -74.36204529 3.31149292
106.89891052 -74.24104309 2.49549294
106.82391357 -74.43104553 -1.58950806
106.42890930 -74.34403992 3.01249290
106.38091278 -74.68804169 1.95049298
106.45590973 -74.36804199 -0.37150601
106.82191467 -74.21804810 1.30249202
106.89191437 -74.08303833 2.40749192
106.82891083 -74.41404724 -0.09150700
106.84791565 -74.30503845 2.68949294
106.31690979 -74.31104279 0.49149299
106.85391235 -74.29704285 -0.59350598
106.90090942 -74.28504181 -1.71350896
106.83691406 -74.25103760 1.23849297
106.82691193 -74.41503906 0.38349199
106.80091095 -74.19104004 3.31649208
106.88191223 -74.13703918 1.90749204
[...]
POINT_DATA 11344
COLOR_SCALARS RGB 3
0.49019608 0.49411765 0.47450981
0.74117649 0.71372551 0.68627453
0.63921571 0.60392159 0.60000002
0.54509807 0.52549022 0.51372552
0.24313726 0.20392157 0.18039216
0.62745100 0.59607846 0.58823532
0.52941179 0.51372552 0.49803922
0.70980394 0.65882355 0.64313728
0.62352943 0.60784316 0.58431375
0.49803922 0.46666667 0.45490196
0.31372550 0.29019609 0.28235295
0.69803923 0.66274512 0.64705884
0.62745100 0.58823532 0.57254905
0.60000002 0.58431375 0.57647061
0.66666669 0.62745100 0.62352943
0.20392157 0.14509805 0.14901961
0.68627453 0.67843139 0.66274512
0.76470590 0.76078433 0.74509805
0.71764708 0.68235296 0.66274512
0.73333335 0.55294120 0.54117650
0.52941179 0.47843137 0.45098040
0.58039218 0.56862748 0.55294120
0.22352941 0.17647059 0.16470589
0.67450982 0.65490198 0.64313728
0.64313728 0.64705884 0.64313728
0.52549022 0.50588238 0.49803922
0.54901963 0.54901963 0.54117650
0.62352943 0.59215689 0.58823532
0.10980392 0.10980392 0.11764706
0.20392157 0.16470589 0.12941177
0.60784316 0.58431375 0.56470591
0.23137255 0.17647059 0.19607843
0.55686277 0.53725493 0.52549022
0.73725492 0.70196080 0.69019610
0.20000000 0.12941177 0.14117648
0.55294120 0.52941179 0.51372552
0.36470589 0.36470589 0.34509805
0.72549021 0.67843139 0.66274512
0.57254905 0.54117650 0.51764709
0.63137257 0.60784316 0.57254905
0.58039218 0.57647061 0.55686277
0.17254902 0.12941177 0.10588235
0.63921571 0.62352943 0.60392159
0.63921571 0.60392159 0.59607846
0.51764709 0.50588238 0.47058824
0.54117650 0.52549022 0.50980395
0.66666669 0.64313728 0.63921571
0.57254905 0.56078434 0.58823532
0.62745100 0.61176473 0.59607846
0.15294118 0.10588235 0.10588235
0.52941179 0.50588238 0.51764709
0.56862748 0.56470591 0.54901963
0.62745100 0.60000002 0.58431375
0.64705884 0.63921571 0.61568630
0.53725493 0.53333336 0.51372552
0.18039216 0.15294118 0.12941177
0.46666667 0.44313726 0.43921569
0.54117650 0.53725493 0.50980395
0.15294118 0.11372549 0.11764706
0.43921569 0.38431373 0.35294119
0.64313728 0.61568630 0.60000002
0.63529414 0.60392159 0.59607846
0.75294119 0.74509805 0.73333335
0.15686275 0.29411766 0.22745098
0.25882354 0.18823530 0.17254902
0.16862746 0.13333334 0.10980392
0.58431375 0.56078434 0.52941179
0.56470591 0.53725493 0.50588238
0.57254905 0.56862748 0.54509807
0.22745098 0.16862746 0.15294118
0.67843139 0.64705884 0.63529414
0.59215689 0.57254905 0.55686277
0.15294118 0.11764706 0.12156863
0.28627452 0.16078432 0.21568628
0.13725491 0.11372549 0.09803922
0.67058825 0.63921571 0.63137257
0.17647059 0.14117648 0.12549020
0.61960787 0.62352943 0.58039218
0.67450982 0.64313728 0.63137257
0.70980394 0.67450982 0.66274512
0.78823531 0.75294119 0.74117649
0.58039218 0.56078434 0.54509807
0.23137255 0.20000000 0.16862746
0.19607843 0.16470589 0.14509805
0.34117648 0.23529412 0.21960784
0.53333336 0.52156866 0.52156866
0.30588236 0.26274511 0.23137255
0.70588237 0.64705884 0.65098041
0.64705884 0.61960787 0.61176473
0.21568628 0.21568628 0.24313726
0.74117649 0.69411767 0.67843139
0.14901961 0.10588235 0.10588235
0.75686276 0.75294119 0.74509805
0.70588237 0.67843139 0.62745100
0.55294120 0.54901963 0.54509807
0.14509805 0.13333334 0.09803922
0.23529412 0.19215687 0.16862746
0.63137257 0.60392159 0.58431375
0.40784314 0.35294119 0.29019609
0.19215687 0.15686275 0.16470589
0.69019610 0.66666669 0.63529414
0.67058825 0.64313728 0.63137257
0.59607846 0.57647061 0.56862748
0.53725493 0.51764709 0.50588238
0.15294118 0.09411765 0.12156863
0.48627451 0.45882353 0.42352942
0.52156866 0.53333336 0.49411765
0.55686277 0.52549022 0.50196081
0.56078434 0.53725493 0.54117650
0.66274512 0.63529414 0.61176473
0.47843137 0.41960785 0.39215687
0.59607846 0.58039218 0.55294120
0.61176473 0.60000002 0.58431375
0.52549022 0.51372552 0.51764709
0.44313726 0.36470589 0.42352942
0.15686275 0.10588235 0.11764706
0.12549020 0.10196079 0.11764706
0.34901962 0.29803923 0.34901962
0.67450982 0.63921571 0.62745100
0.68627453 0.64313728 0.64313728
0.59607846 0.56862748 0.54901963
0.47843137 0.41960785 0.41176471
0.59215689 0.58431375 0.56078434
0.28235295 0.24313726 0.21568628
0.17647059 0.12549020 0.13333334
0.54117650 0.57254905 0.53725493
0.56470591 0.55686277 0.53725493
0.58039218 0.55294120 0.56470591
0.68627453 0.65882355 0.63529414
0.58431375 0.57647061 0.54901963
0.58431375 0.54901963 0.58823532
0.62745100 0.61960787 0.59607846
0.27843139 0.23137255 0.27058825
0.16862746 0.13725491 0.12549020
0.15686275 0.13725491 0.16078432
0.55686277 0.52549022 0.50196081
0.72941178 0.72941178 0.71372551
0.66666669 0.64705884 0.61568630
0.56862748 0.56862748 0.54117650
0.60784316 0.58039218 0.57254905
0.25490198 0.22745098 0.18431373
0.54509807 0.50980395 0.47843137
0.21176471 0.16470589 0.18431373
0.86274511 0.83137256 0.81176472
0.62745100 0.61960787 0.65882355
0.62352943 0.58823532 0.56862748
0.74901962 0.62745100 0.57254905
0.74509805 0.71372551 0.69411767
0.35294119 0.20000000 0.20784314
0.18039216 0.12941177 0.13333334
0.57254905 0.54901963 0.53333336
0.73725492 0.68235296 0.67843139
0.13333334 0.12156863 0.13333334
0.38431373 0.27058825 0.24313726
0.67058825 0.64705884 0.64313728
0.52549022 0.53333336 0.50196081
0.18823530 0.13333334 0.12156863
0.72549021 0.69019610 0.67058825
0.53333336 0.52941179 0.50588238
0.18823530 0.14117648 0.15294118
0.62352943 0.62352943 0.60000002
0.22745098 0.39607844 0.34509805
0.76078433 0.68235296 0.69019610
0.65490198 0.61960787 0.61176473
0.41960785 0.37254903 0.33725491
0.57647061 0.55686277 0.56470591
0.66666669 0.63529414 0.62745100
0.69803923 0.65882355 0.63529414
0.69803923 0.67843139 0.65882355
0.69019610 0.65490198 0.62745100
0.19215687 0.14901961 0.14509805
0.67843139 0.66274512 0.63921571
0.59215689 0.53333336 0.51764709
0.58039218 0.55686277 0.53725493
0.50588238 0.50588238 0.46274510
0.60392159 0.58431375 0.56470591
0.11764706 0.10588235 0.10588235
0.47843137 0.47058824 0.43921569
0.64705884 0.64313728 0.62352943
0.52156866 0.50588238 0.48627451
0.55294120 0.52941179 0.48627451
0.16078432 0.10588235 0.09803922
0.53333336 0.52549022 0.50980395
0.53333336 0.52156866 0.50196081
0.59607846 0.57647061 0.56862748
0.58431375 0.55686277 0.53725493
0.65882355 0.63137257 0.61176473
0.50588238 0.49803922 0.45882353
0.55686277 0.54117650 0.50980395
0.69803923 0.67058825 0.66666669
0.61176473 0.60000002 0.58039218
0.60000002 0.57254905 0.56078434
0.19215687 0.12549020 0.13725491
0.56078434 0.56078434 0.52549022
0.19215687 0.19215687 0.14901961
0.59215689 0.57647061 0.56078434
0.67058825 0.64705884 0.63529414
0.49411765 0.48235294 0.45882353
0.62352943 0.63137257 0.59607846
0.41960785 0.41568628 0.38039216
0.55686277 0.54901963 0.55294120
0.55686277 0.52549022 0.52549022
0.74509805 0.74117649 0.73333335
0.58431375 0.56470591 0.54509807
0.63529414 0.60000002 0.58823532
0.63137257 0.60784316 0.59607846
0.65882355 0.63921571 0.63137257
0.70980394 0.67450982 0.66666669
0.68235296 0.64705884 0.63529414
0.20392157 0.12941177 0.18039216
0.19215687 0.13333334 0.13725491
0.59215689 0.58039218 0.56470591
0.89411765 0.87843138 0.84313726
0.56078434 0.54901963 0.54117650
0.53725493 0.50980395 0.49803922
0.20000000 0.12549020 0.15294118
0.61176473 0.57647061 0.56078434
0.08235294 0.21960784 0.13725491
0.65490198 0.63529414 0.60784316
0.58039218 0.56470591 0.55294120
0.68627453 0.66274512 0.62745100
0.69803923 0.68627453 0.67058825
0.67058825 0.66666669 0.63529414
0.66666669 0.63921571 0.61568630
0.69803923 0.68235296 0.66274512
0.72941178 0.69411767 0.66666669
0.61176473 0.60000002 0.56862748
0.69803923 0.66666669 0.65490198
0.19215687 0.13725491 0.15686275
0.55686277 0.56470591 0.54901963
0.19215687 0.11372549 0.14901961
0.25490198 0.19607843 0.16862746
0.68627453 0.69019610 0.65098041
0.10588235 0.10196079 0.09019608
0.17254902 0.12156863 0.10980392
0.18431373 0.13725491 0.12156863
0.65098041 0.61960787 0.60784316
0.64313728 0.61176473 0.60392159
0.53333336 0.52156866 0.49803922
0.36470589 0.26666668 0.25490198
0.65098041 0.61176473 0.60784316
0.19215687 0.12941177 0.11372549
0.31764707 0.28627452 0.22745098
0.56862748 0.54509807 0.52156866
0.56078434 0.62745100 0.64313728
0.28235295 0.24705882 0.24705882
0.56862748 0.54117650 0.56078434
0.65882355 0.64313728 0.61960787
0.72549021 0.70980394 0.69803923
0.65882355 0.63921571 0.61568630
0.71764708 0.66666669 0.65490198
0.64705884 0.63921571 0.63137257
0.66274512 0.63529414 0.63137257
0.20392157 0.28235295 0.25490198
0.71764708 0.66666669 0.66666669
0.69803923 0.65882355 0.64705884
0.12941177 0.10196079 0.10588235
0.23921569 0.20392157 0.17254902
0.46274510 0.43921569 0.38431373
0.59607846 0.58039218 0.57647061
0.57254905 0.56470591 0.53725493
0.17647059 0.16862746 0.15294118
0.69803923 0.66666669 0.65490198
0.54117650 0.52156866 0.52156866
0.63921571 0.60784316 0.59215689
0.70980394 0.66274512 0.64705884
0.70980394 0.67058825 0.65882355
0.63921571 0.61568630 0.59215689
0.50588238 0.48627451 0.47058824
0.22745098 0.16470589 0.15686275
0.61568630 0.60784316 0.58823532
0.66666669 0.64313728 0.61960787
0.55294120 0.53725493 0.53333336
0.47450981 0.45490196 0.42352942
0.16078432 0.14509805 0.12156863
0.70196080 0.66666669 0.65490198
0.54117650 0.54117650 0.51764709
0.22352941 0.19607843 0.19215687
0.22352941 0.22352941 0.18823530
0.45098040 0.41960785 0.40000001
0.27058825 0.24705882 0.22352941
0.62745100 0.61568630 0.60000002
0.54117650 0.51764709 0.51764709
0.58431375 0.55686277 0.53725493
0.11372549 0.11764706 0.10980392
0.14117648 0.10980392 0.12941177
0.53725493 0.51372552 0.50196081
0.65882355 0.62352943 0.61176473
0.65098041 0.61960787 0.60784316
0.18039216 0.12156863 0.13725491
0.66274512 0.62352943 0.60784316
0.67843139 0.64705884 0.63529414
0.60392159 0.59607846 0.58431375
0.59607846 0.58039218 0.54901963
0.19215687 0.36862746 0.27843139
0.63137257 0.63137257 0.60784316
0.55686277 0.52941179 0.54901963
0.67450982 0.64705884 0.60784316
0.21960784 0.14901961 0.18431373
0.61960787 0.58823532 0.57254905
0.67843139 0.66274512 0.63137257
0.57254905 0.56862748 0.54901963
0.16862746 0.11764706 0.12156863
0.66274512 0.65882355 0.60784316
0.67450982 0.65490198 0.63137257
0.65098041 0.63137257 0.60392159
0.64705884 0.61568630 0.59215689
0.66666669 0.64705884 0.60784316
0.62745100 0.62352943 0.60392159
0.55686277 0.54901963 0.54509807
0.14901961 0.09019608 0.07843138
0.40392157 0.40000001 0.37647060
0.53333336 0.46274510 0.45098040
0.49411765 0.50980395 0.47843137
0.68627453 0.65490198 0.65098041
0.48627451 0.45098040 0.45882353
0.42352942 0.34901962 0.36470589
0.63137257 0.61568630 0.59607846
0.18431373 0.14509805 0.14901961
0.22745098 0.14117648 0.14509805
0.59215689 0.58039218 0.56862748
0.53333336 0.50980395 0.50196081
0.20784314 0.18431373 0.16862746
0.16470589 0.11372549 0.12549020
0.16078432 0.10588235 0.11372549
0.61176473 0.60392159 0.58039218
0.16470589 0.13333334 0.14117648
0.67058825 0.63529414 0.61176473
0.71764708 0.66274512 0.65098041
0.59607846 0.58823532 0.57647061
0.58431375 0.56078434 0.54901963
0.20392157 0.18039216 0.16078432
0.72549021 0.70588237 0.67843139
0.60000002 0.58039218 0.55294120
0.54509807 0.53333336 0.52156866
0.58039218 0.54509807 0.53725493
0.55686277 0.53725493 0.52549022
0.66666669 0.64705884 0.61568630
0.15294118 0.12549020 0.11764706
0.63529414 0.60392159 0.59215689
0.12941177 0.10588235 0.11372549
0.70980394 0.68235296 0.66666669
0.56470591 0.52156866 0.51372552
0.49019608 0.44705883 0.43921569
0.20392157 0.18039216 0.16078432
0.55294120 0.54901963 0.53725493
0.71372551 0.67843139 0.65882355
0.67058825 0.63529414 0.63137257
0.16078432 0.15294118 0.16470589
0.69019610 0.66274512 0.64705884
0.42745098 0.43921569 0.42745098
0.67058825 0.62745100 0.60784316
0.58039218 0.57647061 0.56078434
0.20784314 0.19215687 0.16470589
0.63137257 0.61568630 0.59215689
0.60000002 0.57254905 0.54509807
0.30980393 0.21176471 0.20784314
0.19607843 0.10980392 0.16078432
0.60784316 0.58823532 0.55686277
0.65490198 0.63137257 0.61568630
0.65882355 0.63137257 0.60392159
0.50588238 0.48627451 0.46666667
0.19215687 0.11372549 0.14117648
0.65490198 0.61960787 0.60000002
0.19607843 0.11764706 0.15686275
0.18039216 0.12156863 0.11372549
0.67450982 0.64705884 0.62352943
0.54509807 0.52941179 0.50980395
0.71372551 0.68627453 0.66666669
0.60000002 0.58039218 0.56078434
0.56862748 0.53725493 0.51764709
0.42352942 0.39607844 0.34901962
0.75294119 0.70196080 0.70588237
0.63529414 0.61176473 0.58431375
0.62745100 0.59607846 0.58039218
0.56078434 0.49803922 0.12156863
0.57647061 0.54901963 0.56078434
0.14509805 0.11372549 0.14117648
0.68627453 0.65098041 0.64705884
0.13725491 0.10980392 0.09019608
0.14509805 0.11372549 0.11372549
0.58431375 0.57254905 0.55294120
0.61568630 0.62745100 0.61568630
0.65098041 0.60784316 0.59607846
0.55294120 0.51764709 0.50980395
0.71764708 0.68627453 0.66666669
0.45490196 0.49019608 0.49019608
0.25098041 0.20392157 0.20784314
0.46666667 0.45098040 0.40000001
0.69803923 0.66666669 0.65098041
0.72941178 0.72156864 0.71372551
0.19215687 0.12941177 0.15294118
0.60392159 0.57647061 0.55294120
0.59607846 0.55294120 0.54509807
0.60000002 0.57254905 0.56470591
0.63921571 0.61568630 0.61176473
0.73725492 0.70588237 0.69411767
0.56470591 0.55294120 0.53725493
0.72156864 0.68627453 0.66666669
0.12941177 0.11764706 0.13725491
0.62745100 0.59607846 0.59607846
0.76862746 0.75686276 0.76470590
0.31764707 0.22352941 0.25490198
0.62352943 0.61176473 0.59215689
0.61568630 0.55686277 0.55294120
0.47450981 0.43529412 0.42352942
0.14901961 0.09019608 0.11764706
0.14117648 0.10196079 0.12156863
0.68235296 0.66274512 0.64313728
0.72156864 0.67843139 0.67843139
0.16078432 0.29803923 0.25098041
0.19607843 0.13725491 0.12941177
0.36078432 0.30196080 0.31372550
0.63921571 0.61960787 0.60000002
0.64705884 0.61960787 0.60784316
0.76078433 0.75294119 0.74509805
0.64313728 0.62745100 0.60784316
0.45490196 0.40784314 0.38823530
0.57254905 0.56862748 0.54509807
0.58039218 0.55294120 0.52941179
0.22352941 0.17254902 0.15294118
0.65882355 0.63137257 0.61568630
0.62745100 0.58431375 0.59607846
0.68235296 0.67843139 0.63921571
0.69019610 0.65490198 0.64313728
0.58431375 0.57647061 0.56078434
0.63921571 0.61568630 0.60392159
0.30588236 0.26274511 0.20784314
0.55686277 0.54117650 0.51764709
0.38431373 0.33725491 0.36470589
0.65882355 0.61176473 0.61960787
0.52549022 0.51372552 0.49019608
0.67058825 0.63137257 0.62352943
0.31764707 0.24313726 0.19215687
0.20392157 0.20392157 0.18823530
0.62352943 0.61568630 0.59607846
0.66666669 0.64705884 0.62352943
0.69019610 0.66666669 0.63921571
0.60392159 0.56078434 0.54117650
0.67450982 0.65098041 0.63529414
0.44705883 0.43921569 0.34117648
0.74117649 0.74117649 0.73333335
0.15686275 0.13333334 0.14509805
0.67450982 0.64313728 0.61568630
0.18823530 0.09411765 0.14509805
0.69411767 0.65490198 0.64313728
0.20392157 0.22745098 0.24705882
0.50588238 0.49411765 0.48627451
0.66274512 0.63137257 0.61176473
0.70980394 0.69803923 0.67450982
0.69411767 0.65098041 0.63921571
0.60392159 0.59607846 0.58431375
0.75294119 0.73333335 0.72549021
0.62352943 0.59607846 0.58431375
0.72156864 0.69019610 0.67058825
0.69803923 0.66666669 0.65098041
0.22745098 0.18039216 0.15294118
0.73725492 0.72941178 0.72549021
0.65490198 0.61960787 0.69803923
0.60000002 0.58823532 0.56862748
0.74117649 0.71764708 0.70588237
0.67058825 0.65882355 0.63529414
0.67843139 0.65490198 0.63921571
0.80000001 0.76078433 0.75294119
0.64705884 0.60392159 0.60784316
0.57254905 0.56470591 0.54509807
0.34117648 0.32549021 0.32156864
0.58431375 0.56862748 0.54901963
0.74509805 0.71372551 0.69019610
0.65098041 0.62352943 0.60784316
0.65490198 0.61960787 0.61176473
0.61568630 0.62745100 0.58431375
0.26666668 0.23921569 0.23921569
0.61176473 0.58431375 0.58431375
0.55294120 0.53725493 0.53333336
0.61176473 0.60392159 0.62352943
0.58431375 0.56078434 0.56078434
0.12549020 0.11372549 0.11764706
0.67058825 0.66274512 0.64313728
0.27843139 0.24705882 0.13725491
0.59607846 0.56470591 0.55294120
0.11764706 0.10588235 0.09411765
0.26274511 0.19215687 0.20392157
0.57647061 0.56078434 0.54509807
0.63921571 0.61568630 0.59607846
0.16862746 0.12549020 0.10588235
0.73333335 0.69019610 0.68235296
0.74509805 0.70196080 0.69019610
0.52941179 0.50980395 0.47843137
0.60392159 0.59607846 0.57254905
0.65490198 0.64705884 0.64313728
0.52549022 0.52941179 0.50196081
0.53725493 0.52156866 0.49411765
0.65098041 0.62745100 0.61568630
0.60784316 0.54901963 0.54117650
0.15294118 0.26274511 0.15294118
0.14117648 0.11764706 0.12549020
0.25882354 0.22352941 0.27058825
0.55686277 0.56078434 0.50196081
0.60392159 0.58431375 0.56470591
0.70196080 0.67843139 0.66666669
0.67450982 0.64705884 0.63137257
0.51764709 0.50196081 0.48627451
0.69803923 0.67450982 0.65490198
0.63137257 0.59607846 0.59215689
0.21176471 0.13725491 0.14509805
0.66666669 0.63921571 0.61176473
0.22745098 0.14901961 0.18823530
0.70588237 0.66274512 0.65098041
0.64313728 0.62745100 0.61568630
0.54509807 0.51372552 0.49803922
0.09803922 0.09411765 0.08627451
0.63137257 0.60392159 0.58431375
0.64313728 0.62352943 0.61176473
0.51764709 0.50588238 0.55294120
0.12941177 0.10196079 0.12156863
0.24705882 0.19215687 0.20000000
0.63137257 0.61960787 0.61176473
0.68235296 0.64705884 0.64313728
0.52941179 0.52156866 0.50588238
0.65882355 0.63137257 0.62352943
0.67843139 0.65490198 0.62745100
0.17254902 0.10980392 0.09411765
0.67058825 0.66274512 0.63529414
0.50196081 0.48627451 0.48627451
0.56470591 0.55294120 0.53333336
0.60392159 0.58039218 0.55294120
0.63529414 0.61568630 0.60392159
0.54509807 0.52549022 0.51764709
0.82745099 0.61960787 0.09019608
0.55686277 0.52549022 0.51372552
0.76862746 0.76470590 0.75686276
0.31372550 0.25882354 0.26274511
0.72156864 0.71372551 0.70196080
0.14509805 0.10980392 0.14117648
0.67450982 0.63529414 0.61568630
0.72941178 0.68235296 0.67450982
0.49803922 0.49019608 0.48235294
0.45490196 0.35686275 0.34901962
0.69019610 0.66274512 0.65490198
0.56862748 0.56470591 0.55686277
0.20784314 0.17254902 0.13333334
0.31372550 0.24705882 0.27058825
0.63921571 0.62352943 0.60392159
0.47450981 0.48235294 0.45490196
0.50980395 0.49411765 0.47450981
0.23529412 0.18039216 0.18823530
0.57647061 0.57254905 0.54509807
0.32941177 0.21960784 0.18823530
0.22745098 0.18823530 0.18431373
0.67058825 0.64313728 0.62745100
0.15294118 0.14509805 0.16078432
0.59607846 0.57254905 0.56470591
0.70588237 0.67058825 0.65490198
0.60392159 0.57254905 0.54901963
0.12156863 0.10196079 0.10980392
0.73333335 0.70980394 0.70588237
0.39607844 0.37254903 0.36470589
0.16470589 0.13725491 0.12549020
0.53333336 0.49019608 0.44313726
0.57647061 0.54901963 0.54117650
0.52941179 0.51764709 0.56078434
0.52156866 0.49411765 0.47843137
0.60000002 0.58823532 0.58823532
0.68235296 0.65490198 0.64313728
0.60000002 0.56078434 0.52941179
0.65882355 0.61960787 0.61960787
0.62352943 0.62352943 0.58823532
0.67450982 0.63921571 0.63137257
0.61568630 0.58431375 0.56470591
0.66274512 0.63137257 0.61960787
0.19607843 0.13333334 0.17254902
0.42745098 0.38431373 0.36470589
0.09411765 0.08235294 0.07843138
0.64705884 0.63137257 0.60392159
0.67450982 0.65490198 0.63137257
0.21568628 0.15686275 0.15294118
0.58431375 0.58431375 0.56862748
0.58431375 0.57647061 0.54901963
0.72941178 0.68235296 0.66274512
0.61568630 0.61568630 0.59215689
0.53725493 0.51372552 0.50196081
0.56862748 0.54901963 0.54509807
0.65490198 0.62745100 0.59607846
0.41960785 0.39607844 0.37647060
0.56470591 0.54509807 0.51764709
0.53725493 0.54117650 0.51764709