# vtk DataFile Version 3.0
vtk output
ASCII
DATASET UNSTRUCTURED_GRID
POINTS 7108 float
110.37791443 -82.40003967 0.10849400
110.55891418 -82.04904175 1.78649294
110.25091553 -82.22704315 3.13849306
110.31890869 -82.05104065 1.75549304
110.38091278 -82.36404419 2.74549294
110.42591095 -82.00904083 2.10349298
110.58290863 -82.34704590 1.34749198
110.35191345 -82.02304077 0.61349303
110.61591339 -82.14204407 -1.68450904
110.47391510 -82.45803833 2.95649290
110.51991272 -82.03104401 2.66649199
110.61791229 -82.30004120 1.92249298
110.60990906 -82.11404419 -0.79050797
110.63091278 -82.15704346 0.09549300
110.29691315 -82.06704712 0.08949300
110.38591003 -82.40104675 2.11349297
110.57591248 -82.07003784 -0.28250900
110.27191162 -82.09004211 -1.10050595
110.36591339 -82.02204132 0.76749200
110.60391235 -82.09803772 0.09149200
110.48490906 -82.01804352 -0.99050897
110.46291351 -82.40104675 1.66549301
110.32991028 -82.38703918 -1.37950897
110.34690857 -82.02304077 -0.57550800
110.31291199 -82.37704468 -1.38250697
110.39491272 -82.40403748 1.40349197
110.41490936 -82.01104736 -0.45250699
110.33491516 -82.03804016 0.15549099
110.51591492 -82.39103699 0.46849400
110.35691071 -82.02804565 1.74949300
110.22791290 -82.13304138 3.34149194
110.43491364 -82.40704346 1.07549298
110.38690948 -81.98803711 2.96049309
110.58891296 -82.07504272 1.97349203
110.62891388 -82.14704132 0.47249201
110.39091492 -82.40504456 -0.88050801
110.44891357 -82.40604401 0.07449300
110.67391205 -82.17404175 2.82949305
110.62091064 -82.12203979 1.62449300
110.61090851 -82.06104279 3.25749207
110.42491150 -82.01004028 -1.60150898
110.55290985 -82.04403687 2.55649209
110.31291199 -82.04904175 -1.47150803
110.31890869 -82.37403870 2.15649199
110.54391479 -82.40704346 3.63849306
110.25991058 -82.13504028 -0.38550600
110.31790924 -81.96903992 2.95549202
110.32891083 -82.04203796 0.77049297
110.56291199 -82.31704712 3.13549209
110.42191315 -82.00204468 0.54949200
110.23991394 -82.26704407 0.76349300
110.52490997 -82.02804565 2.03449202
110.30091095 -82.36004639 1.00649297
110.34690857 -82.35504150 2.74749207
110.57991028 -82.07404327 -0.82250601
110.57291412 -82.06404114 0.12349300
110.30490875 -82.05703735 -0.72350699
110.34690857 -82.39103699 -0.03250900
110.59690857 -82.08604431 0.98249203
110.47791290 -82.01403809 -0.14950600
110.60491180 -82.10004425 -0.07750700
110.47491455 -82.00304413 0.97149301
110.37290955 -82.02104187 0.05349300
110.26591492 -82.33103943 -1.52850699
110.40891266 -82.40504456 0.35749400
110.34891510 -82.02404785 -0.21850599
110.44190979 -82.42604065 2.96649194
110.33290863 -82.38304138 1.04049301
110.10091400 -82.26704407 0.90649199
110.47190857 -82.40304565 0.96849298
110.32891083 -82.37904358 1.40649199
110.47291565 -82.01304626 0.45849201
110.33190918 -82.38703918 -1.48650706
110.59490967 -82.08404541 1.15649199
110.39791107 -82.01304626 1.42549300
110.46191406 -82.01004028 1.74249303
110.59690857 -82.08604431 0.94849199
110.51791382 -82.03004456 -0.88950700
110.43791199 -82.00804138 0.76549298
110.48291016 -82.00103760 3.24949288
110.67691040 -82.17304230 2.44649291
110.56091309 -82.36604309 0.15049399
110.21391296 -82.21304321 -0.28150600
110.31790924 -82.37304688 2.23349190
110.55891418 -82.36704254 0.25749201
110.51091003 -82.39304352 -1.80950904
110.54591370 -82.04504395 -0.45150799
110.50691223 -82.39504242 1.08049202
110.42890930 -82.40604401 1.55149305
110.41991425 -82.40504456 2.22849298
110.31690979 -82.37603760 -0.75750703
110.31491089 -82.05503845 2.15649199
110.60691071 -82.10504150 -0.34950599
110.45291138 -82.01104736 -1.02450597
110.48691559 -82.38604736 2.66449189
110.35391235 -82.02703857 -1.81150806
110.63091278 -82.24703979 3.13449311
110.45891571 -82.00904083 2.10349298
110.36791229 -82.02204132 0.63049299
110.60191345 -82.09403992 0.29649401
110.27191162 -82.32904053 0.68449199
110.30490875 -82.05703735 -0.69050598
110.34291077 -82.36303711 3.50549293
110.50891113 -82.02404785 0.12049100
110.23991394 -82.26504517 0.80049300
110.60391235 -82.32104492 0.08249300
110.40491486 -82.40604401 0.67849302
110.59490967 -82.33303833 0.62049299
110.37991333 -82.01804352 -0.68850702
110.45291138 -82.01104736 -0.92250800
110.48291016 -82.01704407 -0.68750799
110.60091400 -82.09204102 0.46649200
110.38790894 -82.40304565 -0.66850698
110.51691437 -82.39103699 0.36149201
110.38491058 -82.01804352 2.77949309
110.29891205 -82.06504822 -0.04650900
110.47090912 -82.01203918 0.66249299
110.24691010 -82.15504456 0.85749203
110.43791199 -82.40704346 0.85849202
110.55590820 -82.05703735 -1.67350805
110.32591248 -82.38204193 -1.02350605
110.24391174 -82.30804443 2.87849212
110.35291290 -82.03104401 2.22249198
110.36090851 -82.39804077 -1.09350598
110.45091248 -82.04203796 2.63449311
110.53890991 -82.03904724 0.39349401
110.26091003 -82.32504272 -1.17050600
110.47391510 -82.39304352 3.50149298
110.27291107 -82.09904480 2.39449310
110.44991302 -82.40704346 0.00349400
110.25391388 -82.29304504 -0.38750800
110.46391296 -82.40304565 1.59049201
110.59690857 -82.36103821 2.83849311
110.26991272 -82.32604218 0.82949299
110.29891205 -82.06404114 -0.08050900
110.53890991 -82.03804016 0.42749399
110.55290985 -82.01004028 2.92549300
110.40691376 -82.38004303 3.38949203
110.37891388 -82.01804352 -0.62050599
110.37390900 -82.02004242 -0.11550900
110.52291107 -82.02604675 2.36449194
110.37290955 -82.02004242 0.01949300
110.47190857 -82.40604401 -1.66350603
110.20790863 -82.18504333 0.82649201
110.50291443 -82.02004242 0.86949301
110.48091125 -82.01603699 -0.48550799
110.54591370 -82.06204224 3.18049192
110.35291290 -82.02204132 0.85149199
110.30791473 -82.36704254 0.39449301
110.31391144 -82.04904175 -1.57450902
110.25491333 -82.22504425 2.66549301
110.43591309 -82.40704346 0.96749300
110.04791260 -82.25904083 2.10149193
110.43491364 -82.41004181 -1.59050798
110.54291534 -82.42204285 3.59049201
110.48891449 -82.40003967 2.38649201
110.21291351 -82.25404358 2.85549212
110.27891541 -82.07904053 1.91449201
110.57591248 -82.35204315 -0.84550899
110.56291199 -82.05303955 1.32649195
110.25991058 -82.11204529 0.02449400
110.58391571 -82.07204437 2.56549311
110.48691559 -82.01904297 -1.19350803
110.25891113 -82.11904144 -0.57550800
110.29791260 -82.36504364 -1.48850596
110.50091553 -82.39604187 -1.09250605
110.58691406 -82.08804321 -1.71150601
110.24790955 -82.29203796 0.04149200
110.34191132 -82.03404236 -0.55450797
110.35391235 -82.02604675 -1.84650803
110.27490997 -82.08404541 -1.37350798
110.48091125 -82.40203857 0.35949299
110.33491516 -82.03804016 0.12149400
110.32291412 -82.04704285 1.39849305
110.29190826 -82.35204315 1.70749295
110.38191223 -82.38703918 2.54149199
110.57891083 -82.34904480 -1.02450597
110.41891479 -82.40704346 -0.42050600
110.48590851 -82.01804352 -1.09150696
110.57891083 -82.07204437 -0.65350699
110.49191284 -82.39804077 2.15749192
110.42491150 -82.00904083 2.21349311
110.45690918 -82.01004028 2.32349205
110.16991425 -82.26704407 0.94449198
110.33190918 -82.38204193 1.14949203
110.24491119 -82.26203918 3.18049192
110.42990875 -82.00904083 1.63549197
110.58491516 -82.08204651 -1.36750805
110.39691162 -82.40704346 -1.37650704
110.34690857 -82.37104797 2.58349204
110.35091400 -82.02804565 -1.50250602
110.52391052 -82.34403992 3.08249307
110.45391083 -82.01203918 -1.12550700
110.37791443 -82.01904297 -0.48650700
110.57991028 -82.10504150 2.61449194
110.53691101 -82.02204132 -0.82350898
110.29891205 -82.35804749 1.11549199
110.42691040 -82.00904083 2.03149199
110.30791473 -82.05503845 -0.96150601
110.43090820 -82.40604401 1.36749303
110.64191437 -82.30503845 2.86049294
110.35191345 -82.03104401 2.25949311
110.43391418 -82.00304413 -1.34050798
110.48791504 -82.40003967 -0.17250800
110.39791107 -82.01304626 1.35549200
110.50391388 -82.02104187 0.73249203
110.39091492 -82.40203857 1.73649204
110.38491058 -82.01704407 -1.29650903
110.58791351 -82.07504272 2.01049209
110.52391052 -82.03704071 -1.67150903
110.32091522 -82.37403870 2.00449204
110.32991028 -82.04104614 0.66749197
110.52891541 -82.38404083 -0.45450601
110.42391205 -82.40504456 1.92449200
110.54991150 -82.37004089 -1.84950602
110.47791290 -82.01403809 -0.11550900
110.45891571 -82.00904083 2.06649208
110.64691162 -82.15904236 -1.65150797
110.24091339 -82.08804321 2.46749306
110.48691559 -82.01904297 -1.22750902
110.57991028 -82.07304382 -0.78950900
110.29190826 -82.07104492 0.56849301
110.32791138 -82.38004303 0.98949200
110.31291199 -82.05004120 -1.43750799
110.12091064 -82.26504517 2.10249305
110.40290833 -82.01203918 0.80049300
110.32791138 -82.38404083 -1.16550803
110.30590820 -82.36504364 0.53749299
110.43591309 -82.00904083 0.97149301
110.40591431 -82.01104736 0.45849201
110.46990967 -82.40203857 1.15049195
110.42890930 -82.00904083 1.77849197
110.45091248 -82.00904083 3.00549293
110.57491302 -82.06704712 -0.21450800
110.34490967 -82.38903809 0.14449300
110.27790833 -82.09004211 1.91149294
110.61891174 -82.11904144 1.84049201
110.54291534 -82.37804413 -1.37950897
110.24591064 -82.14604187 1.10149205
110.26991272 -82.04804230 3.42449188
110.27690887 -82.08204651 -1.54550600
110.27490997 -82.08503723 -1.33950806
110.42790985 -82.40804291 3.59249306
110.60591125 -82.08704376 3.59149194
110.35191345 -82.39103699 2.11449194
110.30290985 -82.36204529 0.82549298
110.55290985 -82.03004456 2.66549301
110.39391327 -82.01403809 1.81649196
110.31291199 -82.37104797 0.00249100
110.27091217 -82.32804108 0.75649297
110.33791351 -82.42704773 2.80149293
110.61691284 -82.11704254 2.13149309
110.43991089 -82.00904083 0.49249300
110.51991272 -82.03204346 -1.19350803
110.47991180 -82.00304413 2.28749299
110.29991150 -82.07504272 -0.38550600
110.48991394 -82.40003967 -0.31350699
110.52091217 -82.03304291 -1.29550600
[...]
POINT_DATA 7108
COLOR_SCALARS RGB 3
0.52549022 0.49803922 0.49019608
0.74117649 0.69803923 0.69411767
0.16862746 0.12941177 0.11764706
0.61960787 0.58823532 0.57254905
0.15294118 0.11764706 0.10196079
0.69803923 0.67450982 0.64313728
0.60000002 0.57647061 0.56862748
0.59215689 0.58039218 0.56470591
0.45098040 0.42745098 0.39215687
0.32941177 0.31372550 0.23529412
0.12156863 0.09019608 0.09803922
0.84313726 0.78823531 0.76078433
0.54117650 0.54509807 0.53725493
0.65098041 0.60784316 0.60784316
0.54509807 0.54901963 0.52941179
0.52156866 0.50980395 0.50588238
0.53725493 0.51764709 0.51764709
0.53333336 0.50196081 0.49803922
0.62745100 0.60392159 0.58823532
0.61568630 0.60392159 0.60392159
0.61176473 0.60392159 0.58823532
0.62745100 0.60392159 0.60392159
0.49411765 0.47058824 0.45098040
0.50196081 0.49803922 0.49411765
0.51764709 0.50588238 0.47058824
0.52549022 0.51372552 0.50588238
0.62352943 0.61176473 0.60000002
0.58431375 0.55686277 0.55294120
0.56862748 0.56862748 0.55294120
0.62352943 0.58823532 0.57254905
0.22745098 0.20000000 0.19215687
0.53725493 0.53725493 0.52549022
0.32156864 0.24705882 0.26666668
0.69019610 0.63921571 0.63529414
0.67058825 0.64705884 0.64313728
0.52156866 0.50980395 0.49019608
0.52549022 0.51372552 0.50980395
0.12549020 0.12549020 0.12941177
0.70196080 0.65882355 0.65098041
0.13333334 0.09411765 0.11372549
0.59215689 0.56078434 0.54117650
0.52156866 0.47058824 0.41176471
0.51764709 0.50196081 0.48235294
0.53725493 0.52156866 0.49803922
0.18039216 0.12941177 0.10588235
0.37647060 0.39215687 0.38039216
0.22745098 0.18431373 0.17254902
0.59607846 0.57647061 0.56862748
0.12156863 0.09019608 0.09411765
0.52549022 0.49411765 0.47058824
0.39607844 0.39607844 0.39607844
0.74901962 0.69411767 0.69411767
0.54117650 0.52941179 0.52549022
0.17254902 0.13333334 0.12549020
0.56470591 0.56470591 0.55294120
0.64705884 0.62745100 0.62352943
0.52549022 0.52549022 0.50196081
0.49411765 0.48627451 0.46666667
0.65882355 0.61960787 0.61176473
0.64705884 0.65098041 0.61960787
0.61568630 0.60784316 0.60784316
0.61568630 0.61960787 0.60000002
0.61176473 0.59215689 0.58039218
0.41960785 0.40784314 0.35294119
0.51372552 0.51372552 0.49411765
0.57647061 0.54901963 0.54901963
0.24313726 0.20392157 0.21176471
0.55686277 0.54901963 0.52941179
0.45490196 0.43921569 0.41568628
0.59607846 0.58431375 0.58431375
0.55294120 0.53725493 0.52941179
0.67450982 0.66666669 0.64705884
0.50588238 0.47058824 0.45098040
0.66274512 0.62352943 0.62745100
0.69411767 0.65882355 0.64313728
0.70980394 0.67450982 0.65490198
0.63921571 0.62745100 0.61568630
0.60392159 0.60000002 0.58823532
0.69411767 0.65490198 0.64313728
0.26666668 0.21568628 0.21960784
0.17647059 0.13725491 0.11764706
0.54117650 0.54117650 0.53333336
0.25098041 0.21568628 0.21176471
0.49019608 0.47058824 0.47450981
0.54509807 0.55294120 0.54117650
0.52549022 0.46274510 0.46666667
0.61960787 0.62352943 0.60392159
0.61568630 0.60784316 0.59607846
0.57254905 0.54509807 0.54117650
0.55294120 0.54509807 0.53725493
0.51764709 0.47843137 0.47843137
0.61960787 0.57647061 0.57254905
0.59215689 0.57647061 0.58431375
0.61960787 0.60392159 0.58823532
0.09411765 0.08235294 0.08235294
0.53333336 0.50980395 0.49019608
0.18823530 0.14901961 0.14509805
0.73725492 0.67843139 0.67450982
0.63137257 0.59607846 0.59607846
0.62352943 0.61568630 0.61176473
0.47450981 0.47058824 0.44313726
0.51764709 0.52941179 0.50980395
0.13333334 0.10588235 0.09411765
0.67843139 0.66666669 0.65490198
0.37647060 0.36862746 0.33333334
0.55294120 0.54117650 0.54117650
0.50588238 0.52156866 0.50588238
0.56470591 0.56862748 0.55294120
0.57254905 0.56862748 0.54117650
0.61568630 0.60000002 0.58431375
0.64313728 0.63921571 0.63137257
0.63137257 0.61568630 0.59607846
0.50196081 0.50196081 0.47450981
0.54901963 0.55686277 0.53725493
0.25490198 0.22745098 0.20392157
0.55294120 0.53333336 0.51764709
0.72941178 0.69019610 0.68235296
0.50980395 0.48627451 0.47450981
0.53333336 0.53333336 0.52941179
0.54117650 0.51372552 0.49803922
0.47450981 0.46274510 0.43921569
0.35686275 0.27058825 0.26274511
0.58823532 0.55686277 0.55294120
0.54117650 0.51764709 0.48627451
0.15686275 0.11372549 0.12156863
0.67843139 0.64705884 0.63921571
0.45098040 0.41176471 0.38431373
0.17254902 0.12941177 0.10588235
0.40000001 0.33333334 0.32549021
0.53725493 0.51764709 0.51372552
0.24313726 0.21176471 0.22352941
0.62352943 0.60392159 0.58823532
0.16078432 0.12941177 0.10588235
0.49019608 0.47450981 0.45882353
0.54509807 0.54509807 0.51764709
0.69411767 0.65098041 0.64313728
0.46666667 0.40784314 0.37254903
0.13725491 0.10196079 0.08627451
0.59215689 0.57647061 0.55686277
0.60000002 0.57647061 0.56470591
0.63137257 0.59215689 0.58431375
0.58431375 0.58823532 0.57254905
0.52156866 0.49803922 0.47450981
0.45490196 0.44313726 0.41176471
0.71372551 0.69019610 0.67058825
0.63137257 0.62745100 0.60000002
0.11372549 0.10196079 0.10588235
0.59215689 0.57254905 0.56470591
0.52549022 0.48627451 0.49411765
0.50588238 0.50588238 0.45098040
0.23137255 0.14509805 0.17254902
0.53725493 0.52549022 0.51764709
0.30588236 0.24313726 0.21176471
0.54117650 0.50196081 0.49019608
0.14509805 0.09803922 0.10196079
0.48627451 0.49019608 0.46666667
0.17647059 0.14509805 0.13725491
0.50980395 0.47843137 0.48235294
0.50588238 0.49019608 0.49411765
0.73333335 0.68627453 0.67843139
0.52941179 0.52156866 0.51372552
0.52156866 0.47058824 0.41960785
0.61568630 0.59607846 0.60000002
0.41176471 0.36078432 0.38823530
0.50196081 0.45098040 0.43137255
0.51372552 0.47843137 0.48235294
0.49803922 0.49019608 0.46666667
0.46666667 0.44313726 0.42352942
0.55294120 0.54901963 0.52941179
0.55294120 0.54117650 0.51764709
0.51372552 0.50196081 0.48235294
0.55294120 0.55294120 0.54117650
0.57647061 0.56078434 0.55294120
0.60784316 0.57254905 0.56078434
0.56470591 0.53333336 0.53333336
0.31764707 0.24313726 0.20000000
0.50980395 0.47843137 0.48235294
0.60000002 0.56078434 0.54509807
0.61568630 0.60392159 0.56078434
0.58823532 0.58431375 0.58039218
0.60784316 0.59607846 0.58823532
0.71764708 0.67450982 0.66666669
0.67450982 0.63137257 0.61568630
0.29411766 0.24313726 0.18431373
0.56862748 0.56078434 0.55294120
0.16470589 0.12156863 0.11764706
0.73333335 0.67058825 0.66666669
0.53725493 0.50980395 0.50588238
0.52549022 0.50588238 0.49411765
0.29019609 0.21568628 0.18039216
0.54509807 0.53333336 0.51372552
0.33333334 0.26666668 0.25882354
0.61960787 0.60392159 0.58823532
0.56862748 0.56862748 0.54901963
0.32941177 0.23921569 0.22745098
0.52156866 0.52156866 0.50588238
0.54901963 0.54117650 0.52549022
0.75294119 0.69019610 0.68627453
0.53333336 0.52156866 0.50196081
0.58431375 0.53725493 0.55294120
0.29803923 0.24313726 0.21176471
0.59215689 0.58039218 0.55686277
0.49019608 0.45882353 0.45098040
0.55294120 0.54901963 0.53725493
0.69411767 0.65882355 0.64705884
0.70588237 0.67450982 0.65882355
0.52549022 0.51372552 0.50588238
0.57254905 0.55686277 0.53725493
0.70980394 0.67058825 0.66274512
0.55686277 0.52941179 0.53333336
0.54901963 0.53333336 0.51764709
0.58431375 0.56078434 0.55294120
0.52549022 0.52156866 0.50980395
0.57647061 0.56078434 0.55294120
0.40392157 0.40784314 0.34901962
0.67058825 0.65098041 0.62745100
0.73725492 0.69019610 0.67058825
0.52549022 0.49803922 0.45490196
0.24705882 0.19607843 0.16862746
0.61568630 0.59607846 0.58039218
0.56862748 0.56862748 0.56078434
0.58431375 0.55294120 0.54509807
0.53725493 0.52941179 0.49411765
0.52549022 0.50196081 0.47843137
0.29803923 0.25098041 0.23137255
0.67058825 0.63921571 0.62745100
0.49411765 0.46274510 0.43137255
0.46666667 0.47450981 0.45490196
0.70196080 0.66274512 0.65098041
0.67843139 0.64705884 0.63137257
0.59215689 0.58431375 0.58431375
0.69411767 0.65490198 0.63137257
0.43137255 0.36862746 0.37254903
0.62352943 0.60392159 0.59215689
0.48627451 0.49019608 0.47843137
0.59215689 0.55686277 0.55686277
0.68235296 0.63921571 0.63137257
0.49019608 0.45882353 0.44705883
0.91372550 0.89803922 0.88627452
0.34509805 0.25490198 0.23529412
0.50196081 0.48627451 0.47450981
0.51764709 0.50196081 0.48627451
0.96470588 0.90588236 0.85882354
0.10980392 0.09019608 0.07843138
0.56862748 0.54901963 0.53725493
0.51764709 0.50588238 0.49803922
0.13333334 0.09803922 0.10588235
0.68235296 0.64313728 0.63137257
0.48235294 0.47843137 0.44705883
0.48627451 0.47843137 0.44705883
0.14901961 0.13333334 0.10980392
0.63529414 0.59215689 0.58431375
0.69019610 0.65490198 0.64313728
0.59215689 0.57254905 0.55294120
0.61960787 0.60392159 0.58823532
0.50588238 0.50588238 0.48627451
0.52156866 0.51764709 0.50196081
0.58039218 0.56078434 0.53725493
0.52156866 0.51764709 0.51764709
0.56862748 0.55686277 0.54509807
0.54117650 0.49411765 0.47058824
0.66666669 0.61568630 0.60784316
0.62745100 0.61960787 0.60000002
0.68627453 0.63529414 0.63921571
0.15294118 0.10196079 0.10588235
0.54901963 0.54509807 0.53725493
0.10196079 0.08235294 0.07843138
0.68235296 0.65882355 0.63529414
0.09411765 0.09803922 0.09411765
0.57254905 0.53725493 0.54509807
0.55686277 0.56862748 0.55294120
0.51372552 0.49803922 0.49019608
0.69803923 0.66274512 0.65882355
0.61960787 0.59215689 0.58039218
0.75686276 0.70588237 0.68235296
0.56078434 0.52549022 0.54509807
0.10980392 0.09411765 0.10196079
0.25882354 0.20392157 0.18039216
0.17254902 0.13333334 0.12549020
0.62352943 0.59215689 0.55686277
0.59215689 0.58823532 0.58431375
0.57254905 0.57254905 0.56078434
0.76470590 0.71764708 0.70588237
0.47058824 0.48627451 0.45490196
0.52941179 0.50196081 0.50196081
0.69411767 0.64313728 0.65098041
0.60000002 0.57254905 0.58039218
0.25490198 0.18039216 0.16862746
0.49019608 0.49019608 0.47058824
0.50980395 0.49411765 0.47843137
0.55294120 0.52156866 0.50980395
0.27058825 0.21176471 0.21176471
0.40784314 0.31764707 0.27450982
0.55294120 0.53725493 0.52941179
0.50588238 0.51372552 0.48235294
0.61176473 0.58823532 0.57647061
0.17647059 0.14509805 0.13725491
0.72156864 0.65882355 0.67450982
0.51764709 0.50980395 0.50588238
0.52156866 0.49803922 0.48627451
0.61960787 0.59215689 0.56862748
0.62745100 0.60784316 0.60000002
0.27450982 0.22352941 0.27058825
0.57647061 0.55294120 0.54901963
0.61960787 0.61176473 0.59607846
0.45882353 0.40000001 0.35686275
0.59215689 0.56078434 0.53333336
0.73333335 0.69803923 0.67843139
0.52941179 0.50588238 0.47843137
0.47450981 0.43921569 0.43529412
0.52156866 0.49411765 0.48627451
0.73725492 0.67058825 0.66274512
0.56078434 0.55686277 0.55686277
0.48235294 0.47843137 0.47058824
0.63137257 0.61960787 0.62352943
0.29019609 0.27450982 0.31372550
0.36862746 0.25098041 0.27450982
0.51764709 0.50980395 0.50980395
0.42745098 0.36078432 0.33333334
0.53725493 0.50980395 0.50196081
0.42745098 0.34117648 0.29803923
0.26666668 0.21568628 0.20784314
0.46666667 0.42352942 0.40784314
0.61568630 0.59215689 0.56862748
0.65882355 0.62745100 0.61568630
0.52941179 0.51764709 0.51372552
0.49411765 0.48627451 0.47843137
0.52549022 0.48627451 0.46666667
0.16078432 0.11372549 0.12156863
0.68235296 0.63921571 0.63921571
0.67843139 0.65882355 0.65098041
0.51764709 0.52549022 0.50196081
0.29411766 0.20784314 0.14901961
0.78431374 0.76470590 0.72941178
0.59607846 0.57254905 0.57647061
0.53725493 0.53725493 0.51764709
0.68627453 0.65490198 0.65490198
0.47450981 0.45490196 0.45490196
0.67058825 0.63529414 0.62745100
0.54509807 0.48235294 0.44705883
0.62745100 0.61176473 0.59607846
0.43137255 0.40784314 0.36862746
0.61568630 0.58431375 0.56470591
0.43137255 0.40784314 0.37254903
0.60784316 0.58431375 0.57647061
0.47843137 0.40000001 0.38039216
0.60000002 0.59607846 0.59607846
0.52549022 0.51372552 0.50588238
0.49411765 0.49803922 0.47843137
0.61568630 0.59607846 0.58039218
0.59607846 0.60784316 0.57647061
0.61176473 0.59607846 0.60784316
0.52941179 0.51764709 0.50980395
0.38039216 0.32941177 0.28235295
0.56862748 0.55686277 0.54117650
0.57254905 0.55294120 0.52156866
0.63921571 0.60784316 0.58431375
0.52941179 0.50588238 0.48627451
0.58823532 0.58039218 0.57647061
0.55686277 0.53333336 0.52156866
0.59215689 0.56470591 0.55686277
0.52156866 0.50196081 0.48235294
0.46666667 0.44313726 0.40000001
0.75294119 0.71372551 0.70588237
0.18039216 0.16862746 0.15294118
0.10196079 0.07450981 0.08235294
0.47058824 0.42745098 0.42352942
0.43529412 0.41568628 0.36470589
0.62745100 0.62352943 0.59607846
0.51372552 0.50588238 0.49411765
0.63921571 0.61960787 0.61568630
0.35294119 0.28235295 0.26666668
0.84705883 0.77647060 0.70980394
0.52941179 0.50196081 0.47450981
0.65882355 0.65882355 0.63529414
0.63921571 0.63529414 0.62352943
0.66274512 0.63137257 0.62745100
0.56078434 0.54901963 0.54901963
0.61960787 0.58823532 0.58039218
0.54117650 0.51372552 0.50588238
0.44705883 0.39215687 0.38823530
0.10980392 0.07058824 0.09803922
0.47450981 0.49019608 0.44705883
0.67058825 0.63529414 0.62352943
0.57647061 0.55686277 0.54901963
0.13725491 0.11372549 0.11764706
0.55294120 0.52941179 0.52549022
0.60784316 0.59215689 0.60000002
0.50980395 0.49411765 0.48235294
0.60000002 0.56470591 0.54509807
0.54509807 0.53725493 0.53725493
0.49019608 0.46666667 0.44705883
0.49803922 0.41960785 0.42352942
0.53725493 0.52941179 0.51372552
0.56862748 0.55686277 0.55294120
0.11764706 0.11764706 0.07843138
0.23921569 0.20784314 0.17254902
0.64313728 0.61568630 0.60000002
0.53333336 0.50196081 0.51764709
0.47058824 0.46666667 0.46666667
0.60392159 0.60000002 0.58823532
0.71764708 0.68627453 0.66666669
0.69411767 0.65098041 0.65490198
0.15686275 0.11372549 0.12156863
0.74509805 0.69019610 0.69019610
0.60784316 0.59215689 0.57647061
0.63137257 0.61176473 0.59215689
0.63529414 0.63137257 0.61568630
0.58039218 0.57647061 0.57647061
0.26666668 0.15686275 0.16862746
0.70980394 0.67058825 0.66274512
0.56470591 0.53725493 0.51372552
0.63137257 0.63137257 0.60784316
0.47450981 0.45882353 0.42352942
0.51372552 0.49411765 0.45882353
0.66274512 0.65882355 0.64705884
0.48627451 0.44313726 0.40392157
0.47058824 0.46274510 0.44313726
0.21568628 0.14901961 0.14117648
0.58039218 0.54509807 0.54509807
0.52941179 0.49803922 0.49019608
0.20000000 0.17647059 0.14901961
0.21568628 0.15686275 0.12941177
0.52549022 0.48235294 0.45098040
0.56470591 0.55294120 0.52941179
0.47450981 0.43921569 0.41568628
0.41568628 0.32549021 0.29411766
0.70196080 0.65490198 0.64705884
0.56862748 0.55294120 0.53725493
0.60000002 0.56470591 0.55294120
0.16862746 0.12549020 0.12941177
0.49803922 0.48235294 0.46666667
0.62352943 0.60784316 0.61960787
0.64705884 0.61176473 0.60000002
0.55686277 0.54901963 0.52156866
0.53725493 0.49803922 0.48235294
0.49803922 0.46666667 0.45882353
0.58823532 0.53725493 0.52549022
0.56470591 0.53333336 0.52941179
0.58823532 0.56470591 0.55686277
0.60784316 0.58823532 0.56862748
0.50980395 0.50588238 0.49411765
0.14509805 0.09411765 0.09019608
0.52549022 0.50196081 0.47058824
0.22745098 0.18823530 0.17254902
0.62352943 0.61568630 0.61568630
0.50588238 0.49019608 0.45882353
0.50588238 0.50196081 0.49803922
0.62745100 0.63137257 0.61176473
0.53725493 0.53333336 0.54117650
0.55686277 0.53725493 0.52156866
0.54901963 0.50588238 0.49803922
0.49803922 0.47450981 0.46274510
0.56470591 0.54117650 0.52941179
0.66274512 0.58823532 0.54509807
0.22352941 0.17254902 0.18039216
0.39215687 0.38431373 0.36470589
0.68235296 0.64705884 0.63529414
0.56862748 0.52549022 0.50196081
0.56862748 0.56078434 0.56078434
0.72156864 0.68235296 0.66666669
0.40392157 0.41960785 0.40392157
0.49803922 0.46666667 0.43137255
0.62745100 0.59215689 0.58431375
0.41960785 0.37647060 0.32941177
0.46274510 0.44313726 0.43921569
0.56862748 0.55294120 0.54901963
0.38823530 0.39215687 0.37647060
0.52156866 0.50980395 0.48627451
0.25882354 0.16470589 0.17254902
0.48235294 0.48235294 0.46666667
0.70980394 0.67450982 0.66274512
0.52156866 0.49019608 0.47843137
0.20784314 0.16862746 0.16078432
0.92549020 0.88235295 0.84313726
0.63921571 0.63921571 0.61960787
0.50196081 0.47843137 0.45490196
0.41568628 0.36470589 0.30980393
0.66274512 0.61568630 0.62352943
0.62745100 0.58431375 0.57647061
0.72156864 0.68627453 0.65490198
0.52156866 0.49411765 0.49019608
0.42352942 0.36862746 0.27450982
0.60784316 0.60784316 0.58823532
0.17647059 0.14117648 0.13333334
0.51764709 0.50588238 0.47843137
0.60784316 0.60000002 0.58823532
0.58039218 0.58039218 0.56078434
0.10196079 0.07843138 0.08627451
0.69019610 0.65098041 0.65490198
0.62745100 0.58039218 0.56862748
0.52549022 0.50588238 0.49411765
0.71372551 0.67843139 0.66666669
0.53725493 0.48235294 0.45098040
0.57647061 0.55294120 0.52549022
0.72941178 0.68627453 0.67450982
0.55686277 0.50588238 0.43921569
0.72941178 0.68235296 0.66666669
0.44313726 0.41176471 0.34901962
0.70588237 0.67058825 0.65490198
0.49411765 0.47843137 0.46274510
0.61568630 0.57254905 0.56470591
0.69019610 0.66274512 0.64313728
0.38431373 0.40392157 0.38431373
0.47843137 0.45882353 0.46274510
0.47058824 0.44313726 0.41960785
0.57647061 0.53725493 0.53333336
0.53333336 0.57254905 0.55294120
0.17647059 0.13725491 0.12156863
0.25098041 0.20784314 0.19215687
0.12941177 0.09803922 0.10196079
0.42745098 0.37254903 0.34117648
0.58039218 0.55294120 0.54901963
0.42352942 0.41176471 0.34509805
0.53333336 0.50196081 0.50196081
0.25882354 0.21176471 0.20784314
0.51372552 0.49411765 0.49019608
0.54509807 0.53725493 0.53333336
0.24705882 0.19215687 0.12941177
0.52549022 0.50196081 0.49019608
0.63529414 0.61568630 0.61568630
0.72549021 0.68627453 0.67843139
0.50196081 0.50196081 0.49019608
0.31764707 0.27450982 0.26666668
0.70196080 0.66666669 0.65882355
0.49803922 0.47450981 0.44313726
0.69019610 0.65882355 0.64705884
0.54117650 0.51764709 0.52156866
0.51372552 0.50588238 0.48627451
0.56470591 0.56862748 0.54117650
0.52549022 0.52156866 0.51764709
0.42745098 0.45490196 0.43137255
0.53725493 0.51764709 0.51764709
0.70196080 0.67058825 0.67058825
0.50196081 0.51372552 0.47843137
0.19215687 0.18431373 0.14117648
0.49019608 0.45490196 0.40784314
0.34509805 0.26274511 0.24313726
0.47450981 0.44313726 0.43137255
0.55686277 0.54509807 0.52156866
0.69019610 0.65490198 0.67450982
0.70980394 0.67058825 0.66274512
0.52941179 0.50588238 0.49803922
0.49411765 0.46666667 0.45490196
0.54509807 0.50980395 0.50980395
0.51372552 0.49411765 0.48627451
0.69411767 0.65098041 0.64313728
0.64705884 0.60392159 0.58431375
0.60392159 0.59607846 0.58823532
0.65490198 0.61960787 0.62352943
0.15294118 0.12549020 0.12941177
0.64313728 0.61176473 0.60000002
0.57647061 0.56862748 0.56470591
0.65882355 0.61960787 0.61568630
0.55686277 0.52941179 0.52941179
0.55686277 0.55294120 0.53333336
0.42352942 0.38039216 0.40000001
0.58431375 0.58039218 0.54509807
0.47058824 0.43137255 0.43137255
0.74901962 0.70196080 0.68627453
0.73725492 0.67450982 0.65490198
0.58823532 0.57647061 0.57254905
0.52549022 0.51764709 0.51764709
0.67843139 0.63921571 0.62745100
0.19215687 0.16078432 0.11764706
0.63921571 0.60000002 0.60000002
0.54509807 0.51764709 0.50196081
0.59215689 0.59215689 0.59215689
0.51764709 0.51372552 0.49411765
0.51764709 0.48235294 0.45882353
0.59607846 0.60000002 0.59607846
0.38823530 0.39215687 0.36470589
0.54509807 0.54509807 0.53333336
0.51764709 0.50588238 0.48627451
0.20000000 0.15686275 0.16470589
0.68627453 0.64313728 0.64705884
0.52941179 0.47843137 0.44313726
0.09803922 0.08627451 0.10196079
0.50196081 0.48627451 0.47058824
0.50980395 0.49411765 0.49803922
0.55294120 0.55686277 0.52941179
0.69803923 0.65882355 0.64705884
0.18431373 0.11372549 0.13333334
0.50196081 0.50196081 0.48627451
0.48627451 0.47450981 0.44313726
0.50980395 0.50980395 0.50588238
0.54117650 0.54509807 0.53725493