# vtk DataFile Version 3.0
vtk output
ASCII
DATASET UNSTRUCTURED_GRID
POINTS 7248 float
106.60391235 -82.34603882 -0.13250700
107.01290894 -82.85504150 2.39449310
107.05891418 -82.47904205 -0.24450700
107.10391235 -82.42104340 1.06949198
106.72891235 -82.38804626 0.64549297
106.73991394 -82.63104248 2.05749297
106.58090973 -82.48504639 2.18449211
106.68691254 -82.40403748 -0.27250701
107.00391388 -82.15304565 1.40249300
106.86291504 -82.52703857 1.28249204
106.59291077 -82.37004089 1.32149303
106.81690979 -82.49903870 -1.36850703
107.12490845 -82.48004150 3.39649200
107.03491211 -82.17104340 1.71949196
106.72791290 -82.38903809 1.79649401
107.12091064 -82.29904175 -1.74150801
106.95191193 -81.99703979 1.96949196
107.00791168 -82.51304626 -1.61450601
107.11891174 -82.27503967 0.13649400
107.04391479 -82.49504089 1.31849301
106.93791199 -82.53204346 -1.68750799
106.66390991 -82.32104492 0.35949299
107.07891083 -82.19503784 1.63849294
106.87891388 -82.14404297 1.72949195
107.09191132 -82.49304199 3.43549299
107.12191010 -82.36804199 1.45249200
106.96791077 -82.52804565 -1.14350903
106.91690826 -82.53204346 -0.03150600
106.78091431 -82.49404144 3.53849196
106.91791534 -82.05804443 2.35049200
107.11090851 -82.26804352 1.65249300
106.89990997 -82.13404083 -0.51350802
106.82591248 -82.15403748 2.67749190
106.80490875 -82.49204254 -0.60750598
106.46691132 -82.49004364 2.27149200
106.84191132 -82.51504517 -0.24650601
107.05191040 -82.17704773 -0.96750599
106.96191406 -82.05604553 2.22249198
107.11791229 -82.38004303 -0.93150699
106.97491455 -82.53104401 1.46349299
106.86891174 -82.52804565 0.76649302
106.93391418 -82.54904175 3.24849296
106.79891205 -82.18104553 3.49449301
107.04190826 -82.52104187 1.95349300
107.09091187 -82.44104004 -0.53250903
106.84690857 -82.15003967 -0.01750600
107.06591034 -82.47103882 -1.03650701
106.80791473 -82.16703796 -1.78550696
107.12591553 -82.34204102 0.52549201
107.05891418 -82.17004395 -0.90150797
107.12091064 -82.28804016 -1.04750800
106.59490967 -82.36404419 1.01949298
106.98390961 -82.52703857 1.64049304
106.54791260 -82.49604797 2.26249290
106.94991302 -82.13504028 -1.65650594
106.92391205 -82.13604736 1.96349299
106.62691498 -82.04704285 2.09749198
106.83991241 -82.15504456 0.71349299
106.54591370 -82.49504089 2.38149309
106.76390839 -82.45304108 -1.15450704
107.10491180 -82.62203979 2.07549310
106.99191284 -82.62504578 2.11949301
106.66191101 -82.34603882 -0.16350600
107.06690979 -82.62304688 2.07749200
106.78990936 -82.48304749 0.40749401
107.10691071 -82.41204071 0.59249300
106.74691010 -82.26104736 3.61849189
107.00991058 -82.51704407 1.39049304
106.72090912 -82.34904480 -1.53050601
107.12591553 -82.33004761 1.30549204
106.97591400 -82.52503967 -1.86950696
106.85491180 -82.14604187 -0.78050601
107.02490997 -82.15804291 -1.76950800
106.90290833 -82.53004456 -1.87250900
106.79791260 -82.52604675 3.66349196
106.67890930 -82.04304504 2.54449296
107.05891418 -82.17004395 -0.78550702
106.98691559 -82.14204407 -1.61650801
106.97591400 -82.14004517 0.09349400
106.88091278 -82.14404297 1.56949198
106.62290955 -82.35204315 -1.53750598
106.72991180 -82.38604736 -1.41950595
106.99890900 -82.51603699 -0.81950802
106.91891479 -82.53204346 -0.13950700
107.07791138 -82.19904327 -0.32250601
106.90090942 -82.53104401 -1.72650898
107.08591461 -82.22004700 2.70349312
107.09590912 -82.22704315 0.78549200
107.10091400 -82.23104095 -0.13250700
106.95091248 -82.54003906 2.68149209
106.95991516 -82.53404236 2.73549294
106.79391479 -82.50304413 3.46049309
107.09791565 -82.43404388 1.81849301
106.81990814 -82.50103760 -1.55050695
106.74291229 -82.44704437 3.41749191
107.03890991 -82.17004395 1.20749295
107.08391571 -82.20904541 -1.81050897
106.79491425 -82.04604340 1.97049296
107.17391205 -82.31404114 1.65549302
107.12290955 -82.35604095 1.07949305
106.93991089 -82.13404083 -0.13350700
106.86090851 -82.14304352 -1.43150699
107.03491211 -82.49804688 -1.03550696
107.27690887 -82.25904083 1.96849298
106.65391541 -82.71504211 1.96549201
107.18191528 -82.66903687 2.51749206
106.97190857 -82.52703857 -1.46850598
107.17091370 -82.50404358 1.93849194
106.72891235 -82.38804626 0.41649199
107.12490845 -82.34403992 0.74749202
107.10291290 -82.26304626 3.13849306
106.83591461 -82.05904388 2.19749308
106.93391418 -82.53804016 1.87849200
106.68991089 -82.31704712 -1.25250602
106.92191315 -82.13004303 2.65749192
107.16490936 -82.05703735 2.48149300
106.68090820 -82.05503845 2.31449294
106.61691284 -82.34904480 -1.12950897
106.99091339 -82.52804565 3.14049292
106.96291351 -82.14304352 1.72049296
107.18691254 -82.21003723 2.22149301
106.84391022 -82.12904358 1.97049296
106.61591339 -82.34803772 -1.05550802
107.03191376 -82.54203796 3.21349311
107.03990936 -82.49903870 1.65449297
106.95391083 -82.14404297 2.99449301
107.06690979 -82.62304688 2.11549211
107.09991455 -82.23004150 0.09649300
107.08090973 -82.20603943 -1.23450899
106.90290833 -82.53604126 1.20549202
106.71191406 -82.05303955 2.12949204
106.91590881 -82.05204773 2.31849289
106.78091431 -82.19804382 -0.16850699
107.02690887 -82.50204468 -0.35350800
107.01691437 -82.18304443 3.47249198
107.04691315 -82.49104309 0.91349202
106.96591187 -82.52804565 -0.92750901
106.86391449 -82.15203857 1.69249296
106.61391449 -82.34704590 -0.94450802
106.77991486 -82.47604370 1.07149303
107.01190948 -82.51603699 1.20449305
107.09991455 -82.42704773 -1.54750800
106.87891388 -82.14404297 1.68949294
106.81491089 -82.15804291 -0.43950701
106.68591309 -82.31604004 -1.57550800
106.81291199 -82.49703979 -1.11450601
106.98791504 -82.14304352 -1.77050805
106.94791412 -82.13903809 3.60849190
106.71291351 -82.33904266 2.88749290
106.73590851 -82.28504181 0.02249100
107.00591278 -82.51904297 1.76549304
106.96091461 -82.55904388 3.21349311
106.46791077 -82.48904419 2.23349190
107.04291534 -82.17104340 0.66649199
106.72791290 -82.28404236 -1.59150696
106.87691498 -82.14604187 1.93049204
106.69190979 -82.36504364 3.11149192
106.90090942 -82.17004395 2.75549293
107.07491302 -82.46504211 1.28549194
107.11591339 -82.38404083 -0.67750901
107.10890961 -82.40904236 0.41049200
106.80691528 -82.03904724 2.03449202
107.09091187 -82.22303772 1.76449203
107.05891418 -82.18203735 3.50949311
107.02690887 -82.53504181 3.50849295
106.97791290 -82.52903748 1.24049199
107.11891174 -82.37603760 -1.07650805
107.12390900 -82.35404205 1.00549304
107.05490875 -82.17904663 -1.65450704
107.09490967 -82.22504425 1.09549296
107.02391052 -82.15704346 -1.61550903
106.97791290 -82.13903809 -0.05750700
106.95690918 -82.53004456 -0.17450701
106.91791534 -82.51904297 2.78349304
107.10391235 -82.23904419 -1.12150598
107.10091400 -82.23304749 -0.20850800
107.09791565 -82.22904205 0.40149301
106.78591156 -82.49204254 3.18949294
106.71391296 -82.63804626 2.36449194
106.86391449 -82.15203857 1.81249201
106.71891022 -82.34304810 1.56849301
107.12591553 -82.34504700 0.33249301
106.86191559 -82.52204132 -1.69250906
107.10491180 -82.24304199 -1.46650696
107.00791168 -82.15203857 0.93549299
107.12691498 -82.28304291 -1.58450699
106.76491547 -82.45304108 -1.22850800
106.88790894 -82.14004517 0.78649300
106.95291138 -82.14504242 3.08049202
107.18591309 -82.21104431 2.30149293
107.05290985 -82.85404205 2.16549301
107.31491089 -82.65804291 2.00049210
107.17391205 -82.12704468 2.21549201
107.08290863 -82.20803833 -1.73350894
106.59590912 -82.30404663 -0.43750799
106.78591156 -82.49204254 2.72449303
106.97090912 -82.14004517 0.82049203
106.68191528 -82.20504761 2.04049301
107.14091492 -82.39704132 3.51249290
107.00091553 -82.15304565 1.79849195
106.95590973 -82.53004456 -0.06750900
107.10091400 -82.42504120 -1.62050605
107.07191467 -82.46504211 -1.61750805
106.90591431 -82.53404236 0.94749302
107.06690979 -82.19404602 1.52349305
107.23490906 -82.07003784 1.93849194
107.03091431 -82.16604614 2.65349197
106.91390991 -82.04704285 2.08749199
106.89990997 -82.53704071 1.50249302
106.79291534 -82.14604187 1.89849305
106.77291107 -82.47103882 1.52149200
106.80091095 -82.53604126 3.61649299
106.86291504 -82.15203857 1.57249296
106.95491028 -82.62603760 2.12149191
106.93891144 -82.53704071 1.42649305
107.13491058 -82.37504578 3.17049193
106.74191284 -82.35104370 2.76949310
106.60091400 -82.19004822 2.44149208
107.07091522 -82.47004700 1.69749296
106.74091339 -82.26004028 3.31049299
106.59291077 -82.32104492 -1.26250803
106.46990967 -82.16703796 2.39349198
106.97891235 -82.13903809 -0.17150900
106.46491241 -82.36604309 2.35149193
107.07091522 -82.19604492 0.86049300
106.97090912 -82.52703857 -1.39650702
106.79991150 -82.67004395 2.14249206
107.16690826 -82.05804443 2.15949202
106.72491455 -82.25304413 3.68349290
107.08991241 -82.44204712 -0.42350799
107.06790924 -82.19503784 1.24849296
107.03791046 -82.49504089 -1.36050797
106.84391022 -82.51504517 -0.35450700
106.98191071 -82.14004517 -0.70250702
107.08491516 -82.85304260 2.39049292
106.87390900 -82.14204407 2.66749191
106.94591522 -82.53504181 0.79949200
106.96791077 -82.52604675 -0.85850900
106.92091370 -82.12203979 -0.89950597
106.80390930 -82.49204254 -0.53550702
106.77091217 -82.46903992 1.67449200
107.00191498 -82.15304565 1.71949196
106.91991425 -82.13004303 2.99449301
106.93591309 -82.13204193 1.63249195
106.95590973 -82.53004456 -0.13850801
106.90190887 -82.00704193 2.54349303
106.64990997 -82.32003784 0.03749100
106.96291351 -82.14103699 1.96049297
106.79491425 -82.48704529 0.87649298
107.07991028 -82.45304108 -0.73550802
106.75391388 -82.48304749 3.42949295
106.87691498 -82.05904388 2.35549212
106.88291168 -82.14103699 1.33149302
106.80590820 -82.16804504 -1.51350796
106.96191406 -82.14304352 1.92049205
107.18891144 -82.46204376 2.21449304
106.59891510 -82.35404205 0.49649400
106.98091125 -82.13903809 -0.43750799
[...]
POINT_DATA 7248
COLOR_SCALARS RGB 3
0.44705883 0.38039216 0.32549021
0.60000002 0.58039218 0.56862748
0.58823532 0.55686277 0.54901963
0.60000002 0.56470591 0.56862748
0.67450982 0.68235296 0.69803923
0.45490196 0.43921569 0.38431373
0.21176471 0.18431373 0.14901961
0.70196080 0.70196080 0.71372551
0.70980394 0.65882355 0.66274512
0.54509807 0.52549022 0.52941179
0.49411765 0.47843137 0.43137255
0.49803922 0.46274510 0.43137255
0.17254902 0.13333334 0.11372549
0.58431375 0.54117650 0.53725493
0.53333336 0.53725493 0.52941179
0.32156864 0.32941177 0.26274511
0.22352941 0.17647059 0.14509805
0.56078434 0.52156866 0.47843137
0.65490198 0.64313728 0.62745100
0.57254905 0.57647061 0.56078434
0.54901963 0.51764709 0.40784314
0.54509807 0.51764709 0.50980395
0.58039218 0.57254905 0.55686277
0.54117650 0.49411765 0.49019608
0.11764706 0.11764706 0.11372549
0.62745100 0.62352943 0.60784316
0.58431375 0.55686277 0.53725493
0.59607846 0.56470591 0.55686277
0.20000000 0.14509805 0.18039216
0.66274512 0.62352943 0.61568630
0.53333336 0.49803922 0.49803922
0.53725493 0.54901963 0.54509807
0.57647061 0.54117650 0.52941179
0.51764709 0.49019608 0.48235294
0.76470590 0.72549021 0.66274512
0.51372552 0.49019608 0.47843137
0.59215689 0.61568630 0.58823532
0.68627453 0.63137257 0.62745100
0.55294120 0.52549022 0.51764709
0.56470591 0.56078434 0.54901963
0.53725493 0.52156866 0.50588238
0.34509805 0.22745098 0.20000000
0.13333334 0.12941177 0.12549020
0.11764706 0.13725491 0.09019608
0.56078434 0.52941179 0.52549022
0.56470591 0.57254905 0.55686277
0.56078434 0.53333336 0.51372552
0.51372552 0.49803922 0.48627451
0.62745100 0.62352943 0.61568630
0.56078434 0.57254905 0.54901963
0.56078434 0.57254905 0.56470591
0.46666667 0.43921569 0.40392157
0.49019608 0.50980395 0.47058824
0.55686277 0.53333336 0.52941179
0.58039218 0.57647061 0.54901963
0.16862746 0.14117648 0.12549020
0.61960787 0.57647061 0.56862748
0.61176473 0.56862748 0.56078434
0.58431375 0.56078434 0.55294120
0.49411765 0.46274510 0.43921569
0.37647060 0.32156864 0.29803923
0.29411766 0.25098041 0.20784314
0.36078432 0.32156864 0.30980393
0.46274510 0.43529412 0.40000001
0.53725493 0.51372552 0.49803922
0.58823532 0.56470591 0.56078434
0.35686275 0.30196080 0.29411766
0.58431375 0.53725493 0.54509807
0.57254905 0.53725493 0.50980395
0.67058825 0.61960787 0.63137257
0.54117650 0.52549022 0.47058824
0.55686277 0.55294120 0.54901963
0.57647061 0.58823532 0.56078434
0.53333336 0.48627451 0.43921569
0.10196079 0.09411765 0.10196079
0.56078434 0.54901963 0.55686277
0.58823532 0.58039218 0.56862748
0.60784316 0.58431375 0.58039218
0.63921571 0.62352943 0.60000002
0.62352943 0.57647061 0.55686277
0.33333334 0.28627452 0.23137255
0.65882355 0.65490198 0.64705884
0.58039218 0.54901963 0.54509807
0.58039218 0.56470591 0.54901963
0.65098041 0.64313728 0.64313728
0.52156866 0.49803922 0.40392157
0.63137257 0.60392159 0.58431375
0.66274512 0.62352943 0.63529414
0.63137257 0.62745100 0.61960787
0.73333335 0.71372551 0.67843139
0.47843137 0.46274510 0.38823530
0.17254902 0.09803922 0.10196079
0.44705883 0.40784314 0.36862746
0.47843137 0.46274510 0.42745098
0.27450982 0.26274511 0.23137255
0.68235296 0.64705884 0.63529414
0.56862748 0.56470591 0.54901963
0.19607843 0.18039216 0.17647059
0.30588236 0.26274511 0.26666668
0.80392158 0.77254903 0.71764708
0.61568630 0.60784316 0.58431375
0.56078434 0.55294120 0.52549022
0.58039218 0.54901963 0.53333336
0.22745098 0.19607843 0.14509805
0.23137255 0.20392157 0.15294118
0.45490196 0.43529412 0.47843137
0.55294120 0.53333336 0.50980395
0.21568628 0.19215687 0.16862746
0.69019610 0.69803923 0.70196080
0.74117649 0.72941178 0.70196080
0.10980392 0.11372549 0.12156863
0.71764708 0.67058825 0.67843139
0.34901962 0.29803923 0.22745098
0.50980395 0.50588238 0.48235294
0.52156866 0.52156866 0.51372552
0.47058824 0.40784314 0.39607844
0.54901963 0.54901963 0.54117650
0.54117650 0.48235294 0.37647060
0.10980392 0.07058824 0.07058824
0.58823532 0.54901963 0.54117650
0.45098040 0.45882353 0.44705883
0.18039216 0.13333334 0.12549020
0.56470591 0.47058824 0.39215687
0.10196079 0.08627451 0.08627451
0.50588238 0.49019608 0.47843137
0.14901961 0.10196079 0.10980392
0.40000001 0.36862746 0.33333334
0.64313728 0.63921571 0.62352943
0.57647061 0.59607846 0.57647061
0.53725493 0.55294120 0.54117650
0.52549022 0.48627451 0.50980395
0.62352943 0.60784316 0.58431375
0.52549022 0.49803922 0.50588238
0.60392159 0.56862748 0.56470591
0.12941177 0.09019608 0.10980392
0.60784316 0.57647061 0.56862748
0.58431375 0.55294120 0.54509807
0.44705883 0.42352942 0.44705883
0.43921569 0.39215687 0.25098041
0.52941179 0.51372552 0.49803922
0.58431375 0.57254905 0.56862748
0.50196081 0.49019608 0.47843137
0.56862748 0.52941179 0.52549022
0.54509807 0.53333336 0.53333336
0.50196081 0.50196081 0.47058824
0.50588238 0.47843137 0.47450981
0.58823532 0.58431375 0.58039218
0.23921569 0.19215687 0.19215687
0.20392157 0.13333334 0.12941177
0.58823532 0.58431375 0.56470591
0.43529412 0.44313726 0.40392157
0.08627451 0.07450981 0.07058824
0.55686277 0.56078434 0.54901963
0.69411767 0.67058825 0.65490198
0.48627451 0.49803922 0.44313726
0.22352941 0.16862746 0.13725491
0.18039216 0.18823530 0.16078432
0.25490198 0.18431373 0.17647059
0.57254905 0.56470591 0.56078434
0.56470591 0.52156866 0.52941179
0.60000002 0.56862748 0.56470591
0.43921569 0.42745098 0.41176471
0.52941179 0.49803922 0.47450981
0.22352941 0.14117648 0.14901961
0.10588235 0.07843138 0.10980392
0.56862748 0.56470591 0.56470591
0.54509807 0.51764709 0.49019608
0.84313726 0.83137256 0.75686276
0.58431375 0.58431375 0.56862748
0.67058825 0.63921571 0.62745100
0.60000002 0.58431375 0.57647061
0.63529414 0.62745100 0.61960787
0.60000002 0.56470591 0.55294120
0.12941177 0.10588235 0.09803922
0.58823532 0.58823532 0.58431375
0.56862748 0.51764709 0.52156866
0.67843139 0.65490198 0.65882355
0.17254902 0.12549020 0.12941177
0.56862748 0.57254905 0.58039218
0.34117648 0.32156864 0.32941177
0.73725492 0.70588237 0.65098041
0.63921571 0.61176473 0.61960787
0.49803922 0.48235294 0.39607844
0.55294120 0.56470591 0.56078434
0.69803923 0.65882355 0.65882355
0.56078434 0.54509807 0.52941179
0.50588238 0.47450981 0.44313726
0.60784316 0.57254905 0.56862748
0.20392157 0.14117648 0.14509805
0.46666667 0.46666667 0.43921569
0.56862748 0.56470591 0.56470591
0.69411767 0.67058825 0.65490198
0.64313728 0.60784316 0.60000002
0.53333336 0.54117650 0.51764709
0.48627451 0.48235294 0.45882353
0.67843139 0.64705884 0.64313728
0.66666669 0.63921571 0.62745100
0.26274511 0.25490198 0.16470589
0.27450982 0.20392157 0.18823530
0.50196081 0.48235294 0.44705883
0.58431375 0.54901963 0.55686277
0.47058824 0.46274510 0.44705883
0.52549022 0.50980395 0.48235294
0.56470591 0.56078434 0.55294120
0.70196080 0.65490198 0.64705884
0.32549021 0.28235295 0.19607843
0.66274512 0.62352943 0.61960787
0.62745100 0.61176473 0.60392159
0.52941179 0.52156866 0.52549022
0.23137255 0.18431373 0.17254902
0.50196081 0.48627451 0.47058824
0.12156863 0.08627451 0.09803922
0.46274510 0.47058824 0.46666667
0.23921569 0.21568628 0.17254902
0.55686277 0.53725493 0.52549022
0.18039216 0.12156863 0.17254902
0.37254903 0.30588236 0.32549021
0.56862748 0.54901963 0.54509807
0.52549022 0.51372552 0.49019608
0.13333334 0.09019608 0.12156863
0.54117650 0.52941179 0.40784314
0.97647059 0.97647059 0.98039216
0.63529414 0.63137257 0.62745100
0.37647060 0.38039216 0.43529412
0.67843139 0.65098041 0.64705884
0.55686277 0.53725493 0.50980395
0.58431375 0.53333336 0.47843137
0.67843139 0.64313728 0.63921571
0.33725491 0.31764707 0.37254903
0.57647061 0.53725493 0.53333336
0.67450982 0.63529414 0.62352943
0.55686277 0.52549022 0.51764709
0.49803922 0.47450981 0.46274510
0.61568630 0.60392159 0.58823532
0.60392159 0.57647061 0.55686277
0.54901963 0.50980395 0.49803922
0.57254905 0.56862748 0.56862748
0.58039218 0.54509807 0.53725493
0.57254905 0.57254905 0.54901963
0.51372552 0.49019608 0.47450981
0.45882353 0.43921569 0.43137255
0.58823532 0.55686277 0.53333336
0.21568628 0.14901961 0.14117648
0.54901963 0.55294120 0.52549022
0.54901963 0.53333336 0.52941179
0.58431375 0.54509807 0.55686277
0.55294120 0.52549022 0.51372552
0.16470589 0.12156863 0.09019608
0.67450982 0.67450982 0.71764708
0.55686277 0.51764709 0.50980395
0.22352941 0.16862746 0.14509805
0.66666669 0.62745100 0.62352943
0.63921571 0.60000002 0.59607846
0.53333336 0.50588238 0.51372552
0.31764707 0.25098041 0.22745098
0.55294120 0.52941179 0.52156866
0.47058824 0.42745098 0.39215687
0.62745100 0.60784316 0.58823532
0.53725493 0.54117650 0.50980395
0.13333334 0.10588235 0.12549020
0.49411765 0.46666667 0.37647060
0.54509807 0.54509807 0.53333336
0.35686275 0.34901962 0.27450982
0.49019608 0.47058824 0.41568628
0.64313728 0.62745100 0.60000002
0.22745098 0.16078432 0.16862746
0.71372551 0.66666669 0.66274512
0.56862748 0.54901963 0.53333336
0.30196080 0.25490198 0.23921569
0.31764707 0.21176471 0.20000000
0.65490198 0.63529414 0.61568630
0.69803923 0.66274512 0.66666669
0.38039216 0.42352942 0.44705883
0.38431373 0.41568628 0.40392157
0.49803922 0.46666667 0.46666667
0.60784316 0.58823532 0.58431375
0.15686275 0.14509805 0.12941177
0.61176473 0.60392159 0.60784316
0.12156863 0.09019608 0.09019608
0.41960785 0.34901962 0.36078432
0.55686277 0.52941179 0.52156866
0.14117648 0.10588235 0.13333334
0.70980394 0.66666669 0.65882355
0.50588238 0.50980395 0.49411765
0.52156866 0.51764709 0.49411765
0.10588235 0.09411765 0.09019608
0.61176473 0.59215689 0.60392159
0.50588238 0.42745098 0.36862746
0.18431373 0.10196079 0.12156863
0.51764709 0.48627451 0.49411765
0.11764706 0.10196079 0.10196079
0.29019609 0.22352941 0.23137255
0.23529412 0.20784314 0.16078432
0.96078432 0.92549020 0.84705883
0.54117650 0.51372552 0.49411765
0.47450981 0.49019608 0.49019608
0.60784316 0.58039218 0.56470591
0.19607843 0.16862746 0.16078432
0.41960785 0.38431373 0.38431373
0.99215686 0.98039216 0.98431373
0.54901963 0.54901963 0.53333336
0.69019610 0.66274512 0.64705884
0.51372552 0.49019608 0.49411765
0.47450981 0.48235294 0.45882353
0.58431375 0.54901963 0.54901963
0.21568628 0.19607843 0.22745098
0.14901961 0.12941177 0.11372549
0.58039218 0.54509807 0.54509807
0.49019608 0.43529412 0.41568628
0.44313726 0.41568628 0.36078432
0.11372549 0.08627451 0.10196079
0.66274512 0.61960787 0.61960787
0.33725491 0.32941177 0.27058825
0.61568630 0.59215689 0.57647061
0.58039218 0.58823532 0.57254905
0.28627452 0.24313726 0.27450982
0.62352943 0.61960787 0.59607846
0.62745100 0.61568630 0.62745100
0.55294120 0.54509807 0.54117650
0.56862748 0.54117650 0.52941179
0.18823530 0.12156863 0.12549020
0.68627453 0.66274512 0.63137257
0.55686277 0.50588238 0.50588238
0.45882353 0.40784314 0.43921569
0.57647061 0.55294120 0.54117650
0.60000002 0.58431375 0.56470591
0.55686277 0.55686277 0.54509807
0.22745098 0.18431373 0.25098041
0.57254905 0.52941179 0.52941179
0.62745100 0.62745100 0.60000002
0.21960784 0.10588235 0.13333334
0.22745098 0.19607843 0.15686275
0.52549022 0.50588238 0.45490196
0.58431375 0.56078434 0.54901963
0.21960784 0.19607843 0.15294118
0.50588238 0.49019608 0.47843137
0.58431375 0.58039218 0.56862748
0.66274512 0.63529414 0.62745100
0.61568630 0.58039218 0.58431375
0.19607843 0.13333334 0.13333334
0.67058825 0.63137257 0.63529414
0.15686275 0.11764706 0.09411765
0.49803922 0.48627451 0.48627451
0.54117650 0.51372552 0.50196081
0.50196081 0.48235294 0.46274510
0.61960787 0.57647061 0.57254905
0.12549020 0.08627451 0.10196079
0.58431375 0.56470591 0.56862748
0.65882355 0.63529414 0.62352943
0.43921569 0.44705883 0.46274510
0.65098041 0.61960787 0.61176473
0.68627453 0.63921571 0.63921571
0.61568630 0.60000002 0.58431375
0.65882355 0.63921571 0.62352943
0.69411767 0.66666669 0.66274512
0.61176473 0.54901963 0.49411765
0.54117650 0.53725493 0.51372552
0.54509807 0.57254905 0.55686277
0.57254905 0.53725493 0.52941179
0.53725493 0.52156866 0.50196081
0.66666669 0.62745100 0.62745100
0.14901961 0.10980392 0.10980392
0.58823532 0.54509807 0.53333336
0.58431375 0.58431375 0.56078434
0.65490198 0.66274512 0.63529414
0.22745098 0.13725491 0.14901961
0.52941179 0.52549022 0.50196081
0.19215687 0.18823530 0.12941177
0.46666667 0.44313726 0.43529412
0.63529414 0.59607846 0.59607846
0.65882355 0.65098041 0.64313728
0.48627451 0.48627451 0.45490196
0.50196081 0.49411765 0.46666667
0.50980395 0.49019608 0.45490196
0.45490196 0.42352942 0.25098041
0.63529414 0.62745100 0.61960787
0.49803922 0.47843137 0.47058824
0.51372552 0.50196081 0.48235294
0.66274512 0.63529414 0.62745100
0.48627451 0.46666667 0.40784314
0.58823532 0.56862748 0.58039218
0.58823532 0.56470591 0.55294120
0.56078434 0.52941179 0.52941179
0.67058825 0.63137257 0.62745100
0.49803922 0.47058824 0.48627451
0.57254905 0.54509807 0.52549022
0.55686277 0.52549022 0.50196081
0.44313726 0.43137255 0.38823530
0.58431375 0.58039218 0.57254905
0.51372552 0.50196081 0.48627451
0.67058825 0.63529414 0.63137257
0.57647061 0.58039218 0.56862748
0.24705882 0.21176471 0.19215687
0.54509807 0.52156866 0.48627451
0.53725493 0.51372552 0.49411765
0.19607843 0.12941177 0.13333334
0.49411765 0.44313726 0.38039216
0.16862746 0.11764706 0.12156863
0.71372551 0.67843139 0.65882355
0.18039216 0.12941177 0.13333334
0.58039218 0.55294120 0.55294120
0.66666669 0.61176473 0.61568630
0.17254902 0.13333334 0.14509805
0.57254905 0.54509807 0.52941179
0.59607846 0.59215689 0.57647061
0.54117650 0.52549022 0.50588238
0.17647059 0.16862746 0.13333334
0.54901963 0.53725493 0.52549022
0.13333334 0.08627451 0.09019608
0.23137255 0.14509805 0.16470589
0.48235294 0.49411765 0.49803922
0.57254905 0.54117650 0.53333336
0.54901963 0.51764709 0.50196081
0.48627451 0.45098040 0.40784314
0.26666668 0.19607843 0.21568628
0.61568630 0.60000002 0.60784316
0.65490198 0.65490198 0.63529414
0.65098041 0.61568630 0.60392159
0.46274510 0.41568628 0.37647060
0.50588238 0.40392157 0.44313726
0.43529412 0.42745098 0.35294119
0.56470591 0.56078434 0.54509807
0.66666669 0.65490198 0.64705884
0.58823532 0.57254905 0.55294120
0.11372549 0.08235294 0.09411765
0.66274512 0.63137257 0.63137257
0.16078432 0.09019608 0.09803922
0.63921571 0.59607846 0.59607846
0.66274512 0.63137257 0.61176473
0.51372552 0.49019608 0.47450981
0.16862746 0.14509805 0.14117648
0.54901963 0.52549022 0.50588238
0.57647061 0.58823532 0.58823532
0.61568630 0.60000002 0.59607846
0.54901963 0.51764709 0.50980395
0.59607846 0.57647061 0.54117650
0.63529414 0.61568630 0.60784316
0.45882353 0.42352942 0.38823530
0.55686277 0.52156866 0.50980395
0.63921571 0.63137257 0.64313728
0.60392159 0.57254905 0.54509807
0.15686275 0.10588235 0.10980392
0.65098041 0.62745100 0.61568630
0.69411767 0.65098041 0.65882355
0.59607846 0.56470591 0.54901963
0.53725493 0.53333336 0.52941179
0.67058825 0.63529414 0.63529414
0.71372551 0.66666669 0.65098041
0.59607846 0.58039218 0.56078434
0.57254905 0.57254905 0.57254905
0.61176473 0.54117650 0.48627451
0.56862748 0.56470591 0.55294120
0.66274512 0.58823532 0.58823532
0.39607844 0.38431373 0.35686275
0.36078432 0.35294119 0.30196080
0.56470591 0.55686277 0.53725493
0.49411765 0.50588238 0.47843137
0.68627453 0.63921571 0.63921571
0.61176473 0.58431375 0.56470591
0.69803923 0.66274512 0.65490198
0.65098041 0.65882355 0.66666669
0.19607843 0.18431373 0.15294118
0.41568628 0.39215687 0.23921569
0.51764709 0.50196081 0.48627451
0.21176471 0.15294118 0.16078432
0.64705884 0.61568630 0.60392159
0.60000002 0.57647061 0.57647061
0.55294120 0.55294120 0.54509807
0.56862748 0.54509807 0.53725493
0.61176473 0.59607846 0.60784316
0.57254905 0.54509807 0.52549022
0.56078434 0.52549022 0.52156866
0.51764709 0.48235294 0.41176471
0.56078434 0.55686277 0.54117650
0.65882355 0.65490198 0.66274512
0.59607846 0.56862748 0.54901963
0.68235296 0.64705884 0.64313728
0.63529414 0.63137257 0.62352943
0.36470589 0.29803923 0.28235295
0.32156864 0.32549021 0.26274511
0.15294118 0.11372549 0.10980392
0.69411767 0.63137257 0.63529414
0.67843139 0.65098041 0.63921571
0.50588238 0.50980395 0.48627451
0.67843139 0.66274512 0.64705884
0.73333335 0.70980394 0.73725492
0.63921571 0.63529414 0.63529414
0.61960787 0.58431375 0.57647061
0.13725491 0.09803922 0.07843138
0.67843139 0.65098041 0.63529414
0.54509807 0.51372552 0.51372552
0.50980395 0.50196081 0.49411765
0.53725493 0.50588238 0.49803922
0.25490198 0.25490198 0.22352941
0.14901961 0.10980392 0.13725491
0.23529412 0.15294118 0.17647059
0.56078434 0.51372552 0.49411765
0.65490198 0.61960787 0.61568630
0.55686277 0.51764709 0.49803922
0.60392159 0.58039218 0.57254905
0.68627453 0.64705884 0.65098041
0.44313726 0.43921569 0.40000001
0.20784314 0.17254902 0.15294118
0.70196080 0.67058825 0.66274512
0.55294120 0.55686277 0.55294120
0.55294120 0.51372552 0.47058824
0.67058825 0.63921571 0.63137257
0.34117648 0.33725491 0.28627452
0.60392159 0.59215689 0.58823532
0.56862748 0.53725493 0.53333336
0.56078434 0.55294120 0.53333336
0.29803923 0.28235295 0.21960784
0.18823530 0.17254902 0.15686275
0.18039216 0.12941177 0.11372549
0.50980395 0.46274510 0.45882353
0.23137255 0.22745098 0.29803923
0.59607846 0.58039218 0.56470591
0.55686277 0.53725493 0.52549022
0.63529414 0.60392159 0.60000002
0.21176471 0.14509805 0.15294118
0.48627451 0.45098040 0.43921569
0.54117650 0.51764709 0.48627451
0.61568630 0.59215689 0.57254905
0.25490198 0.19607843 0.18823530
0.56078434 0.55294120 0.53333336
0.63921571 0.61176473 0.60392159
0.44313726 0.43921569 0.43137255
0.13333334 0.17647059 0.12941177
0.54117650 0.51372552 0.51372552
0.57254905 0.57254905 0.55294120
0.15294118 0.11372549 0.14117648
0.12941177 0.12941177 0.10196079
0.22352941 0.12941177 0.14509805
0.55294120 0.54117650 0.51764709
0.57647061 0.56078434 0.53725493
0.66274512 0.62745100 0.63529414
0.28627452 0.31764707 0.24313726
0.63921571 0.60392159 0.59607846
0.60784316 0.58039218 0.57647061
0.57254905 0.58039218 0.55294120
0.54509807 0.54509807 0.54117650
0.59215689 0.58431375 0.57647061
0.56862748 0.53725493 0.51764709
0.17254902 0.13725491 0.12156863
0.42745098 0.32941177 0.27843139
0.57254905 0.54117650 0.54509807
0.23529412 0.18823530 0.16078432
0.50980395 0.47843137 0.47058824
0.65882355 0.61960787 0.61960787
0.60784316 0.58431375 0.58039218
0.58823532 0.58431375 0.58039218
0.45882353 0.41176471 0.37647060
0.56862748 0.57254905 0.56078434
0.57254905 0.54117650 0.54117650
0.21176471 0.14509805 0.13725491
0.40000001 0.39215687 0.32941177
0.50980395 0.46666667 0.43921569
0.49803922 0.52941179 0.60392159
0.60392159 0.60392159 0.59607846
0.14117648 0.09411765 0.10196079
0.52549022 0.49803922 0.48235294
0.46666667 0.45098040 0.37647060
0.57647061 0.54509807 0.52941179
0.60000002 0.58431375 0.56470591
0.31372550 0.27450982 0.25490198
0.59215689 0.56862748 0.56470591
0.51372552 0.49019608 0.45490196
0.39215687 0.34117648 0.30588236
0.49019608 0.48235294 0.45098040
0.54509807 0.53725493 0.52549022
0.69019610 0.65490198 0.64705884
0.56862748 0.52549022 0.45882353
0.23137255 0.13725491 0.13725491
0.57647061 0.57254905 0.56470591
0.68235296 0.64705884 0.63137257
0.58823532 0.57647061 0.57254905
0.62745100 0.58823532 0.58823532
0.60392159 0.56862748 0.56078434
0.47450981 0.45098040 0.43529412
0.47450981 0.45882353 0.42352942
0.67058825 0.63921571 0.63529414
0.65098041 0.63529414 0.63529414
0.53725493 0.50980395 0.50588238
0.55686277 0.54509807 0.52156866
0.77647060 0.76470590 0.71764708
0.51764709 0.50980395 0.49019608
0.60392159 0.56470591 0.54901963