# vtk DataFile Version 3.0
vtk output
ASCII
DATASET UNSTRUCTURED_GRID
POINTS 14623 float
113.81291199 -61.84004211 2.63149309
113.82691193 -61.84604263 3.13849306
117.56591034 -61.36304092 2.53349304
117.48590851 -61.29504395 3.62749290
113.86090851 -61.83404160 2.90249300
113.25391388 -61.85804367 -1.74350703
113.52291107 -61.83104324 -0.35850900
113.25291443 -61.77904129 -0.18150701
113.43090820 -61.36304092 0.76749200
113.77191162 -61.84004211 2.15349197
113.52590942 -61.85104370 0.01049400
113.41991425 -61.44104385 1.40749204
113.83190918 -61.84304428 2.78949189
113.44791412 -61.79804230 1.27049303
113.61891174 -61.83604431 2.08749199
113.87091064 -61.80204391 2.30949211
113.29291534 -61.83104324 -0.44950899
113.64591217 -61.83604431 0.85749203
113.25091553 -61.85504150 -1.38450599
113.85091400 -61.84304428 3.61549211
117.70590973 -61.64904404 1.99449301
118.02791595 -61.38204193 -1.51850903
113.52191162 -61.85504150 0.24049400
118.01491547 -61.31904221 -1.13650894
117.93790436 -61.08304214 1.04649401
113.48191071 -61.50104141 2.29649401
113.89691162 -61.84004211 3.41949296
113.52690887 -61.41204071 2.08449197
113.20391083 -61.42304230 -0.62550700
113.30991364 -61.65904236 0.86749297
117.52791595 -61.45704269 2.73449302
113.52191162 -61.83604431 -0.26850900
113.74990845 -61.35804367 3.49749207
117.62291718 -61.56104279 2.11949301
113.60691071 -61.81304169 2.38649201
113.29591370 -61.48504257 0.63449299
117.67591095 -61.37104416 1.60849202
113.58391571 -61.34204102 1.70449305
117.65790558 -61.71604156 3.64249206
117.48590851 -61.60704422 3.55549192
113.16891479 -61.84904099 -1.83350801
113.46591187 -61.85004425 0.49049401
117.77091217 -61.65104294 1.50949299
113.42990875 -61.72804260 1.64549303
113.38991547 -61.70304108 1.41649199
113.33391571 -61.35204315 -0.27350599
117.80791473 -61.56404114 0.66349202
113.71891022 -61.84104156 2.78649306
117.52890778 -61.62504196 3.31749296
113.34191132 -61.85504150 -1.34050798
113.59291077 -61.82104111 2.19549203
113.43991089 -61.65604401 1.98749399
117.58090973 -61.63904190 2.94149208
113.72391510 -61.84904099 2.14949203
113.85091400 -61.84204102 3.66649199
113.72090912 -61.34004211 2.80149293
113.84590912 -61.33204269 3.65449309
113.64091492 -61.78604126 0.04549400
113.51091003 -61.85404205 0.53649300
117.73590851 -61.70004272 2.51749206
113.67890930 -61.36004257 2.88149309
113.37991333 -61.85504150 -0.49350700
117.81290436 -61.22304153 1.38149297
117.52991486 -61.53804398 2.84149194
113.82091522 -61.82104111 2.16049194
112.99990845 -61.66904068 -1.81750906
118.09391022 -61.31904221 -1.92750895
117.50591278 -61.36504364 3.05149293
113.23590851 -61.66704178 0.18049200
113.79491425 -61.76604080 1.28349304
113.39591217 -61.63604355 1.70849204
117.61290741 -61.69604111 3.36549211
113.25691223 -61.38604355 -0.40350699
117.61690521 -61.49104309 2.01849198
117.86191559 -61.67304230 3.29649401
117.73891449 -61.27904129 1.45749295
113.40391541 -61.72804260 1.39649200
117.49691010 -61.54704285 3.15249300
113.55390930 -61.78504181 2.29649401
113.34291077 -61.58504105 1.22949195
113.63491058 -61.82004166 2.57849312
117.93390656 -61.65004349 2.92849302
113.73490906 -61.33004379 2.20149207
113.43791199 -61.82404327 -1.25350595
117.48691559 -61.32704163 3.41249299
113.82591248 -61.80504227 1.97549200
113.44290924 -61.71504211 1.77649295
113.40190887 -61.79104233 0.93049198
113.60391235 -61.71804428 3.18849206
117.81691742 -61.30704117 0.57849300
117.95090485 -61.35404205 -0.78750598
113.47591400 -61.72204208 2.07049203
117.96291351 -61.44804382 -0.95050800
113.64591217 -61.85004425 1.67649305
117.96091461 -61.35804367 -0.86850703
113.61791229 -61.36304092 2.44749308
117.45590973 -61.55404282 3.48949194
113.16991425 -61.48304367 -0.46750599
117.49991608 -61.44604111 2.97349191
117.88591766 -61.33104324 -0.14250600
113.18791199 -61.49304199 -0.27450600
113.81091309 -61.84504318 2.82249308
113.50891113 -61.81004333 1.62449300
113.26091003 -61.60804367 0.50549299
113.62991333 -61.85104370 1.16249299
113.67691040 -61.81404114 3.01749206
113.81690979 -61.83404160 2.39449310
113.73691559 -61.81904221 1.36549199
113.33290863 -61.83604431 -0.00250600
113.52490997 -61.69004440 2.59449196
113.89491272 -61.84304428 3.61949301
118.01990509 -61.19904327 1.42449200
113.10890961 -61.59204102 -0.78950900
117.69591522 -61.66504288 2.25449204
113.91991425 -61.77504349 2.46249199
113.55191040 -61.80704117 2.05649209
113.72090912 -61.84404373 2.67249298
113.27991486 -61.37904358 -0.08350800
113.47691345 -61.69604111 2.20549202
113.69891357 -61.41104126 3.70149207
117.91591644 -61.68604279 2.59449196
113.72391510 -61.84804153 2.19649291
113.52790833 -61.62004089 2.79249191
113.62591553 -61.71104431 3.38849306
113.80891418 -61.84504318 2.96849298
113.37691498 -61.84204102 0.04249200
113.55091095 -61.82404327 1.81949198
117.65091705 -61.22304153 3.41949296
113.22190857 -61.58604431 0.17849299
117.43790436 -61.50804138 3.53949189
117.67990875 -61.25904083 2.17749190
117.76590729 -61.20804214 2.18549299
117.84790802 -61.70704269 2.58149290
113.72691345 -61.84604263 1.96249199
117.46390533 -61.55504227 3.46449304
117.86191559 -61.19404221 1.73949206
113.13991547 -61.61004257 -0.53250903
113.52391052 -61.82804108 -0.40250799
117.84790802 -61.70904160 2.42149401
113.58090973 -61.33604431 0.60849202
113.58591461 -61.72504425 2.94949293
113.21491241 -61.74404144 -0.27050799
113.52790833 -61.54604340 2.78649306
113.91490936 -61.79204178 2.60149193
113.29291534 -61.82504272 -0.36050799
113.46791077 -61.85504150 0.22149301
113.33491516 -61.84504318 -0.40450701
117.66591644 -61.30604172 1.94749296
117.82691193 -61.20904160 1.95249200
117.84790802 -61.70904160 2.47449303
113.93691254 -61.83704376 3.61149192
117.78990936 -61.21404266 3.30149293
113.63991547 -61.84804153 1.22049296
113.07491302 -61.42604065 -1.61950696
113.50891113 -61.83004379 1.35549200
117.58391571 -61.43204117 2.23149300
113.16991425 -61.85304260 -1.96850598
118.19890594 -61.19504166 -1.76750600
113.85291290 -61.84404373 3.31549311
113.30390930 -61.41504288 0.30849099
113.63391113 -61.83204269 2.33749199
113.31391144 -61.49604416 0.83149302
113.04891205 -61.72404099 -1.57550800
117.69191742 -61.37604141 1.44749296
113.42091370 -61.84304428 0.35549200
117.52191925 -61.31804276 3.21249199
118.16791534 -61.18504333 -1.27650797
117.87491608 -61.64804077 3.47049308
113.50991058 -61.81204224 1.63449299
113.57991028 -61.35404205 1.88349295
117.88791656 -61.59604263 0.18149200
117.93590546 -61.68104172 2.59149194
113.38091278 -61.77404404 0.94849199
113.54391479 -61.39804077 2.23749399
117.67191315 -61.69704437 3.15549302
113.52091217 -61.83904266 -0.22450601
117.73691559 -61.62604141 1.63049304
117.63491058 -61.66204071 2.72649193
114.01791382 -61.73304367 3.01449203
113.42491150 -61.40704346 1.29449296
117.53990936 -61.29504395 3.13349295
118.18691254 -61.17004395 -0.62650698
113.20891571 -61.43304443 -0.40350699
113.17191315 -61.63004303 -0.27450600
117.67391205 -61.69604111 2.88549209
117.73590851 -61.69704437 2.73149300
113.51591492 -61.85204315 -0.00050700
117.88791656 -61.44304276 -0.32550800
118.00490570 -61.20904160 -0.22150800
113.64691162 -61.76004410 3.24049211
113.80991364 -61.84504318 2.91949296
117.65891266 -61.50704193 1.70049298
113.86691284 -61.81404114 2.44949293
117.96891022 -61.19804382 0.34249100
113.40691376 -61.74604416 1.24149299
117.54691315 -61.53404236 2.68549299
113.77490997 -61.83204269 1.96749306
113.42990875 -61.70704269 1.70849204
113.76290894 -61.83804321 3.21249199
113.12490845 -61.52804184 -0.72550601
113.32891083 -61.34904099 -0.40250799
113.24191284 -61.37704086 -0.66050702
117.72591400 -61.71204376 2.99649191
113.54291534 -61.63804245 2.93349290
113.08591461 -61.79604340 -1.74850798
113.59690857 -61.62904358 3.27249289
117.50591278 -61.37904358 2.99949288
113.36691284 -61.59904099 1.43049204
113.42691040 -61.75604248 1.45549202
113.63591003 -61.84204102 0.81749302
113.51390839 -61.37404251 1.94149196
113.29391479 -61.85604095 -1.07250595
113.75291443 -61.76104355 0.86949301
117.76190948 -61.29004288 1.22249198
113.42790985 -61.85204315 -0.67150903
114.00091553 -61.79404068 3.39249206
113.71990967 -61.83304214 3.01449203
113.48891449 -61.36504364 1.36449206
113.37691498 -61.83704376 0.13149300
113.38790894 -61.71304321 1.36849201
113.86791229 -61.81004333 2.40249300
113.72991180 -61.83804321 1.73149300
113.25491333 -61.43704224 -0.04550600
113.67591095 -61.84404373 2.33649302
113.57591248 -61.33604431 1.37149203
113.54190826 -61.67904282 2.89449310
113.67591095 -61.83804321 2.52849197
113.62591553 -61.85304260 1.39349198
113.09490967 -61.69404221 -1.08050895
117.49991608 -61.47604370 2.96649194
113.48091125 -61.44104385 2.03149199
117.67990875 -61.43004227 1.45749295
117.85390472 -61.21404266 3.00949311
117.66791534 -61.23404312 2.86949301
117.85691071 -61.19704437 2.53149199
117.99591827 -61.42104340 -1.23450899
117.72290802 -61.49004364 1.12549198
118.03090668 -61.41204071 -1.55150604
113.29391479 -61.80404282 -0.09150700
117.42790985 -61.50404358 3.61949301
113.46591187 -61.83904266 0.80749297
113.33290863 -61.50704193 1.02849197
113.59291077 -61.81104279 2.33949304
113.82991028 -61.84504318 2.90549302
113.67591095 -61.82504272 2.81949210
113.63391113 -61.82704163 2.43349290
113.42691040 -61.85404205 -0.58150899
118.13291168 -61.17604065 -0.46350899
113.48891449 -61.48904419 2.34749198
117.83090973 -61.25604248 0.96649200
113.20991516 -61.85704422 -1.83350801
113.55991364 -61.84504318 0.31349200
117.47290802 -61.62404251 3.69449210
117.45191193 -61.56004333 3.54249191
113.73390961 -61.82804108 1.50149298
113.37290955 -61.53004074 1.42749202
113.78890991 -61.78604126 1.41849303
117.55290985 -61.30004120 2.97349191
117.91591644 -61.67904282 2.92349195
[...]
POINT_DATA 14623
COLOR_SCALARS RGB 3
0.72941178 0.72156864 0.68627453
0.47450981 0.52156866 0.49411765
0.43921569 0.45098040 0.45490196
0.36078432 0.34117648 0.30588236
0.49803922 0.48627451 0.47843137
0.51764709 0.50196081 0.45882353
0.52156866 0.49803922 0.46274510
0.47058824 0.41568628 0.36470589
0.44313726 0.43921569 0.40784314
0.56862748 0.55686277 0.55294120
0.47450981 0.46274510 0.46666667
0.48235294 0.45882353 0.44313726
0.49019608 0.50588238 0.49411765
0.56862748 0.54117650 0.49411765
0.60784316 0.58039218 0.57647061
0.52156866 0.52156866 0.49411765
0.55294120 0.52941179 0.51372552
0.50980395 0.50196081 0.48235294
0.51764709 0.50980395 0.49411765
0.54509807 0.55686277 0.54509807
0.49803922 0.50588238 0.47843137
0.42352942 0.41568628 0.37254903
0.47450981 0.47843137 0.45490196
0.38431373 0.43137255 0.42745098
0.43921569 0.41960785 0.41568628
0.54117650 0.54901963 0.55686277
0.59215689 0.57647061 0.56470591
0.52941179 0.50980395 0.50196081
0.44313726 0.47058824 0.47450981
0.54117650 0.52941179 0.50588238
0.47058824 0.46666667 0.47058824
0.52941179 0.51372552 0.48627451
0.58039218 0.54509807 0.53333336
0.74117649 0.70588237 0.67450982
0.80784315 0.79607844 0.78823531
0.52941179 0.52549022 0.50588238
0.43529412 0.45882353 0.46666667
0.56078434 0.54509807 0.52941179
0.58039218 0.57647061 0.57647061
0.59215689 0.58039218 0.57647061
0.51372552 0.50196081 0.47450981
0.56078434 0.52941179 0.49803922
0.80784315 0.73725492 0.71372551
0.57254905 0.54509807 0.52941179
0.53333336 0.52156866 0.50196081
0.49019608 0.51764709 0.49803922
0.45098040 0.46666667 0.47058824
0.60784316 0.61568630 0.61960787
0.65098041 0.63137257 0.61176473
0.50588238 0.50196081 0.47058824
0.65490198 0.64313728 0.62745100
0.63529414 0.61960787 0.59607846
0.46666667 0.46666667 0.47058824
0.67450982 0.68235296 0.63529414
0.57647061 0.56862748 0.54509807
0.57254905 0.54901963 0.52549022
0.60000002 0.55294120 0.56078434
0.33725491 0.32549021 0.29411766
0.56470591 0.53725493 0.50588238
0.53725493 0.54509807 0.52941179
0.43529412 0.41960785 0.44705883
0.53725493 0.52156866 0.51372552
0.49411765 0.49803922 0.47450981
0.64313728 0.62352943 0.60000002
0.54117650 0.53333336 0.52156866
0.48627451 0.49411765 0.47450981
0.36862746 0.37254903 0.29019609
0.49803922 0.48235294 0.47450981
0.53333336 0.54509807 0.52156866
0.51764709 0.50980395 0.49411765
0.92549020 0.88627452 0.87058824
0.56078434 0.55294120 0.55294120
0.49803922 0.51372552 0.49019608
0.45098040 0.44705883 0.42745098
0.62352943 0.64313728 0.63529414
0.47843137 0.47843137 0.46666667
0.51764709 0.49411765 0.49803922
0.65098041 0.65098041 0.60000002
0.54901963 0.54117650 0.51372552
0.54509807 0.52941179 0.51372552
0.69803923 0.69803923 0.67450982
0.70196080 0.74117649 0.76470590
0.46666667 0.46666667 0.44313726
0.45882353 0.47843137 0.44705883
0.38823530 0.39215687 0.38039216
0.52549022 0.52156866 0.50980395
0.68235296 0.66274512 0.66274512
0.50980395 0.50588238 0.43137255
0.57254905 0.54117650 0.52156866
0.44705883 0.45882353 0.40392157
0.45490196 0.42352942 0.39607844
0.56078434 0.54117650 0.51372552
0.39607844 0.40784314 0.36470589
0.51764709 0.50980395 0.50196081
0.41176471 0.41960785 0.41176471
0.55686277 0.53725493 0.52156866
0.49019608 0.48235294 0.47450981
0.50588238 0.50588238 0.49019608
0.47450981 0.45490196 0.45490196
0.45098040 0.43137255 0.40784314
0.52549022 0.51372552 0.51372552
0.54901963 0.55294120 0.53333336
0.61960787 0.60784316 0.59607846
0.54117650 0.54509807 0.52156866
0.47843137 0.47843137 0.47058824
0.50588238 0.52941179 0.50196081
0.56078434 0.55686277 0.54117650
0.68627453 0.66274512 0.63137257
0.50196081 0.47843137 0.47058824
0.81176472 0.78431374 0.75686276
0.57647061 0.56078434 0.54117650
0.50980395 0.48235294 0.49019608
0.50980395 0.50588238 0.48235294
0.49803922 0.51764709 0.49803922
0.63529414 0.62745100 0.60784316
0.67058825 0.64313728 0.63921571
0.77254903 0.73725492 0.72156864
0.38823530 0.37647060 0.32549021
0.90196079 0.89803922 0.84313726
0.57647061 0.54509807 0.54509807
0.58823532 0.60392159 0.58823532
0.60000002 0.59215689 0.58431375
0.80784315 0.76470590 0.74117649
0.84705883 0.83921570 0.80392158
0.54117650 0.54901963 0.52941179
0.53333336 0.52156866 0.51764709
0.63921571 0.62745100 0.59215689
0.38431373 0.41176471 0.44705883
0.53725493 0.53333336 0.51372552
0.47843137 0.47450981 0.47058824
0.49019608 0.49019608 0.49411765
0.53333336 0.51764709 0.51764709
0.56078434 0.56470591 0.54509807
0.67058825 0.65490198 0.63529414
0.65098041 0.64705884 0.60784316
0.52941179 0.51764709 0.52156866
0.50196081 0.51764709 0.49019608
0.51372552 0.49019608 0.45490196
0.55686277 0.55686277 0.53725493
0.61568630 0.55294120 0.49411765
0.74117649 0.72549021 0.71764708
0.51764709 0.46666667 0.45490196
0.79607844 0.76078433 0.73333335
0.51764709 0.52549022 0.50196081
0.51372552 0.50980395 0.47843137
0.55686277 0.52941179 0.50980395
0.52941179 0.52156866 0.49411765
0.30980393 0.32941177 0.33725491
0.36470589 0.38823530 0.40784314
0.57254905 0.57647061 0.55686277
0.50588238 0.50196081 0.49803922
0.45882353 0.46274510 0.43137255
0.58823532 0.57254905 0.54509807
0.49019608 0.51372552 0.46666667
0.69803923 0.67450982 0.62745100
0.49803922 0.51372552 0.50196081
0.51764709 0.47450981 0.43137255
0.37647060 0.43921569 0.41568628
0.55686277 0.55294120 0.54117650
0.54117650 0.54117650 0.52156866
0.54117650 0.53725493 0.52156866
0.53333336 0.51764709 0.50196081
0.55294120 0.52941179 0.50588238
0.49019608 0.49411765 0.48627451
0.54509807 0.52156866 0.50980395
0.40784314 0.44313726 0.46666667
0.43529412 0.45098040 0.43921569
0.80000001 0.80784315 0.83137256
0.60784316 0.58431375 0.56470591
0.44705883 0.45490196 0.43921569
0.49803922 0.48627451 0.49411765
0.56470591 0.56470591 0.55686277
0.54901963 0.52549022 0.48627451
0.55294120 0.52549022 0.51764709
0.54117650 0.54509807 0.54509807
0.52549022 0.50196081 0.48235294
0.60392159 0.60784316 0.58823532
0.50588238 0.50588238 0.49411765
0.58431375 0.57647061 0.56078434
0.56470591 0.54901963 0.54117650
0.52549022 0.50980395 0.48235294
0.47450981 0.45882353 0.44705883
0.52156866 0.52549022 0.50196081
0.50196081 0.50196081 0.49019608
0.52549022 0.53333336 0.52156866
0.52941179 0.53333336 0.50980395
0.56470591 0.55686277 0.52941179
0.55686277 0.54117650 0.52941179
0.47843137 0.48235294 0.45882353
0.99607843 0.99607843 0.99607843
0.55294120 0.54901963 0.54117650
0.47843137 0.44313726 0.45490196
0.54117650 0.53725493 0.51372552
0.47450981 0.48235294 0.46274510
0.90196079 0.83529413 0.74509805
0.61568630 0.59607846 0.60392159
0.62745100 0.61176473 0.58039218
0.64313728 0.62745100 0.62352943
0.54509807 0.55294120 0.53725493
0.52549022 0.51372552 0.49803922
0.50588238 0.51372552 0.48627451
0.47843137 0.49411765 0.47450981
0.55294120 0.55294120 0.55294120
0.70588237 0.70588237 0.69803923
0.51372552 0.51764709 0.49019608
0.65098041 0.62352943 0.56862748
0.47058824 0.48235294 0.46666667
0.58431375 0.54509807 0.54117650
0.54117650 0.53333336 0.50588238
0.45882353 0.47058824 0.46666667
0.92941177 0.91764706 0.82352942
0.52941179 0.51372552 0.48627451
0.56078434 0.52549022 0.50980395
0.36470589 0.37647060 0.41176471
0.52549022 0.50588238 0.48627451
0.53725493 0.53333336 0.51764709
0.52941179 0.53333336 0.52156866
0.55294120 0.53333336 0.53333336
0.55686277 0.53333336 0.51764709
0.56862748 0.54901963 0.52941179
0.52156866 0.52549022 0.50196081
0.54509807 0.54509807 0.52941179
0.47843137 0.50196081 0.50980395
0.54509807 0.54901963 0.52156866
0.54117650 0.52941179 0.51764709
0.79215688 0.79215688 0.81960785
0.72549021 0.70980394 0.69019610
0.54901963 0.55294120 0.55294120
0.52941179 0.50588238 0.46666667
0.49803922 0.48235294 0.47843137
0.56862748 0.54901963 0.52941179
0.47450981 0.46666667 0.43137255
0.52549022 0.51372552 0.52156866
0.44705883 0.45882353 0.45098040
0.50588238 0.50196081 0.51372552
0.51764709 0.50196081 0.48235294
0.58823532 0.58431375 0.55294120
0.52156866 0.50980395 0.47843137
0.39215687 0.34117648 0.32156864
0.48235294 0.48627451 0.45098040
0.55686277 0.52941179 0.50588238
0.54509807 0.54901963 0.51764709
0.53725493 0.53333336 0.51372552
0.49019608 0.50196081 0.49411765
0.67843139 0.68235296 0.64705884
0.72156864 0.70588237 0.69019610
0.53333336 0.50588238 0.49411765
0.46274510 0.46666667 0.45882353
0.54509807 0.53333336 0.49803922
0.39215687 0.43529412 0.43921569
0.50588238 0.49803922 0.47450981
0.64313728 0.60784316 0.55686277
0.50588238 0.50980395 0.50588238
0.49803922 0.49019608 0.49411765
0.69803923 0.66274512 0.65098041
0.56862748 0.53333336 0.52941179
0.65490198 0.63529414 0.61176473
0.50980395 0.50196081 0.48627451
0.60392159 0.59607846 0.54509807
0.52156866 0.49411765 0.47450981
0.56862748 0.57647061 0.56078434
0.45882353 0.47843137 0.46274510
0.47058824 0.47843137 0.47058824
0.32549021 0.33725491 0.31372550
0.64705884 0.57647061 0.52549022
0.55686277 0.53725493 0.51764709
0.48627451 0.49019608 0.46274510
0.57647061 0.54901963 0.53725493
0.52156866 0.52549022 0.49411765
0.52941179 0.50588238 0.48235294
0.52156866 0.49803922 0.48235294
0.76078433 0.72941178 0.69411767
0.43137255 0.44705883 0.40784314
0.41568628 0.43529412 0.39607844
0.74509805 0.76470590 0.80784315
0.52156866 0.52156866 0.50588238
0.49411765 0.48235294 0.45098040
0.53725493 0.52549022 0.50588238
0.64705884 0.62745100 0.59215689
0.54901963 0.53725493 0.50196081
0.58823532 0.58431375 0.57647061
0.50980395 0.52549022 0.50588238
0.51764709 0.50588238 0.49019608
0.56078434 0.53333336 0.49411765
0.39607844 0.39215687 0.37254903
0.52941179 0.50196081 0.48627451
0.89411765 0.87058824 0.79607844
0.68627453 0.64705884 0.61960787
0.52941179 0.52549022 0.50196081
0.47843137 0.48235294 0.46666667
0.42745098 0.43137255 0.36078432
0.53725493 0.54117650 0.54117650
0.47843137 0.44705883 0.44705883
0.65098041 0.63921571 0.63137257
0.58039218 0.55686277 0.54509807
0.49019608 0.49803922 0.47450981
0.42352942 0.40392157 0.33333334
0.60784316 0.61960787 0.60784316
0.38431373 0.41960785 0.33725491
0.70196080 0.64705884 0.58039218
0.46274510 0.47450981 0.45098040
0.54509807 0.51372552 0.50588238
0.47058824 0.45490196 0.43921569
0.52156866 0.52156866 0.49803922
0.60000002 0.57254905 0.57647061
0.42745098 0.42745098 0.38823530
0.46274510 0.44705883 0.38823530
0.72549021 0.69803923 0.70196080
0.53333336 0.50196081 0.49019608
0.52941179 0.47843137 0.45882353
0.83137256 0.76078433 0.71372551
0.47843137 0.49019608 0.48235294
0.63529414 0.58823532 0.52549022
0.99607843 0.98823529 0.97647059
0.45882353 0.43921569 0.41176471
0.58039218 0.58431375 0.56862748
0.49803922 0.49019608 0.46666667
0.52549022 0.49803922 0.47058824
0.42745098 0.42745098 0.41176471
0.52156866 0.50196081 0.47843137
0.49019608 0.46274510 0.44313726
0.56078434 0.54117650 0.53725493
0.91372550 0.90196079 0.90980393
0.47450981 0.45098040 0.41960785
0.51764709 0.52156866 0.50196081
0.67843139 0.67450982 0.67450982
0.52941179 0.49019608 0.44313726
0.70588237 0.69803923 0.69019610
0.45490196 0.45098040 0.43921569
0.54509807 0.53333336 0.50196081
0.52941179 0.50588238 0.51764709
0.67058825 0.64313728 0.62745100
0.71372551 0.67450982 0.62352943
0.52156866 0.51372552 0.52156866
0.53333336 0.51764709 0.50980395
0.54901963 0.54901963 0.53725493
0.60784316 0.59607846 0.56470591
0.46666667 0.42745098 0.40000001
0.50588238 0.50980395 0.50196081
0.49411765 0.48627451 0.47450981
0.54509807 0.55686277 0.54901963
0.56078434 0.55294120 0.54901963
0.57647061 0.58431375 0.56470591
0.38431373 0.42352942 0.43921569
0.53333336 0.51764709 0.49411765
0.64313728 0.62745100 0.59215689
0.45882353 0.41568628 0.42352942
0.33725491 0.33333334 0.36078432
0.46274510 0.44705883 0.43137255
0.63529414 0.57254905 0.51372552
0.41960785 0.42745098 0.40000001
0.56078434 0.53333336 0.52156866
0.52156866 0.51764709 0.51372552
0.69019610 0.61176473 0.60784316
0.39215687 0.41568628 0.36470589
0.70196080 0.66666669 0.64313728
0.48627451 0.44313726 0.42352942
0.53725493 0.52549022 0.50980395
0.49803922 0.49803922 0.46274510
0.60000002 0.56862748 0.56078434
0.56078434 0.54117650 0.53333336
0.67058825 0.65490198 0.63921571
0.40392157 0.36078432 0.31764707
0.57647061 0.54901963 0.53725493
0.68627453 0.67058825 0.64313728
0.56470591 0.54901963 0.52941179
0.70196080 0.69019610 0.65882355
0.53725493 0.50980395 0.49411765
0.56862748 0.56078434 0.56470591
0.50980395 0.50196081 0.49411765
0.64313728 0.65098041 0.61568630
0.57254905 0.58431375 0.59215689
0.46666667 0.45490196 0.41568628
0.45490196 0.44705883 0.43137255
0.54117650 0.53725493 0.54509807
0.49019608 0.48235294 0.47450981
0.61960787 0.63529414 0.60784316
0.53725493 0.51764709 0.50196081
0.56470591 0.54509807 0.53333336
0.47450981 0.44705883 0.44705883
0.46666667 0.45490196 0.37647060
0.50588238 0.50980395 0.47843137
0.71764708 0.71372551 0.67450982
0.54117650 0.52549022 0.52156866
0.54509807 0.51764709 0.49411765
0.54117650 0.50980395 0.49803922
0.66666669 0.65882355 0.65490198
0.46666667 0.46666667 0.47843137
0.50196081 0.51372552 0.50980395
0.54117650 0.52156866 0.52549022
0.49019608 0.47058824 0.45098040
0.52549022 0.50588238 0.47450981
0.45882353 0.40392157 0.43137255
0.45490196 0.42745098 0.41568628
0.59607846 0.59607846 0.60784316
0.54117650 0.52156866 0.50588238
0.53725493 0.52941179 0.50196081
0.70588237 0.71764708 0.72156864
0.34117648 0.35686275 0.34509805
0.55294120 0.53725493 0.53333336
0.96862745 0.96470588 0.98039216
0.50588238 0.51764709 0.48235294
0.53333336 0.53333336 0.51764709
0.53725493 0.50588238 0.50588238
0.58823532 0.56862748 0.56470591
0.72549021 0.70980394 0.71372551
0.51372552 0.52941179 0.51764709
0.49411765 0.49019608 0.45882353
0.63529414 0.63529414 0.63137257
0.49019608 0.50588238 0.47450981
0.50588238 0.49803922 0.45490196
0.42745098 0.42352942 0.38823530
0.61960787 0.58431375 0.55294120
0.55294120 0.52941179 0.51764709
0.46666667 0.43529412 0.43137255
0.59215689 0.59215689 0.60392159
0.49803922 0.49411765 0.47058824
0.56862748 0.53333336 0.53725493
0.54901963 0.52941179 0.51372552
0.54901963 0.52549022 0.49019608
0.52156866 0.50588238 0.47058824
0.53725493 0.52156866 0.53725493
0.31372550 0.28627452 0.31372550
0.56470591 0.57254905 0.55294120
0.55294120 0.52549022 0.50588238
0.49803922 0.50980395 0.49019608
0.47450981 0.48235294 0.45098040
0.54117650 0.51764709 0.49411765
0.50196081 0.49411765 0.47843137
0.49803922 0.47450981 0.47450981
0.56470591 0.55686277 0.54117650
0.58823532 0.53333336 0.49411765
0.52156866 0.53725493 0.56862748
0.49803922 0.45882353 0.45882353
0.57254905 0.54901963 0.53333336
0.53725493 0.50980395 0.50980395
0.45490196 0.44705883 0.43137255
0.48235294 0.46274510 0.48235294
0.54901963 0.58823532 0.62745100
0.54509807 0.54901963 0.54117650
0.44705883 0.39607844 0.40784314
0.54901963 0.52549022 0.49019608
0.48627451 0.49411765 0.47843137
0.51372552 0.51764709 0.50196081
0.48627451 0.47058824 0.45490196
0.52941179 0.53725493 0.50980395
0.52156866 0.51764709 0.50196081
0.54509807 0.53333336 0.50980395
0.55294120 0.55686277 0.52156866
0.55686277 0.52941179 0.51372552
0.52549022 0.50588238 0.49019608
0.45098040 0.43921569 0.41176471
0.51372552 0.53333336 0.49019608
0.55294120 0.52549022 0.52549022
0.43529412 0.40000001 0.34509805
0.48627451 0.49411765 0.47843137
0.50196081 0.49411765 0.45882353
0.36078432 0.33725491 0.28235295
0.45490196 0.45882353 0.44313726
0.43921569 0.39607844 0.36862746
0.71372551 0.69411767 0.66666669
0.51764709 0.51764709 0.50196081
0.50196081 0.50588238 0.50196081
0.52941179 0.50980395 0.52941179
0.44313726 0.45490196 0.43529412
0.56862748 0.54117650 0.52549022
0.47450981 0.45882353 0.44705883
0.56078434 0.53725493 0.52941179
0.52941179 0.53333336 0.50980395
0.59215689 0.59215689 0.58039218
0.52941179 0.54117650 0.52156866
0.67450982 0.63921571 0.61960787
0.52941179 0.51764709 0.50588238
0.50588238 0.50588238 0.49411765
0.54509807 0.52156866 0.50196081
0.49803922 0.50196081 0.47843137
0.45098040 0.45882353 0.44313726
0.47843137 0.46666667 0.45098040
0.52941179 0.51372552 0.49411765
0.70588237 0.68235296 0.67450982
0.70980394 0.68627453 0.66274512
0.67843139 0.67843139 0.65098041
0.49803922 0.49411765 0.47843137
0.43529412 0.44313726 0.43137255
0.49803922 0.46666667 0.40784314
0.47450981 0.47450981 0.46666667
0.56470591 0.54901963 0.55294120
0.48235294 0.48627451 0.45490196
0.46274510 0.47843137 0.50196081
0.72549021 0.69411767 0.67843139
0.60784316 0.61176473 0.58431375
0.61960787 0.59215689 0.56078434
0.60784316 0.57254905 0.55686277
0.51372552 0.51372552 0.50196081
0.50588238 0.50980395 0.49019608
0.47450981 0.50196081 0.52156866
0.50980395 0.47843137 0.45490196
0.56078434 0.53333336 0.50588238
0.50980395 0.52549022 0.49019608
0.50588238 0.51372552 0.50588238
0.54509807 0.52941179 0.50588238
0.57254905 0.54901963 0.54117650
0.49019608 0.51372552 0.48627451
0.43137255 0.43137255 0.43529412
0.54901963 0.54901963 0.53725493
0.93725491 0.93333334 0.90196079
0.49019608 0.48235294 0.47843137
0.49019608 0.48235294 0.48235294
0.71372551 0.69411767 0.67058825
0.49411765 0.49411765 0.47450981
0.52156866 0.48235294 0.45098040
0.51372552 0.50980395 0.51372552
0.57254905 0.57254905 0.55686277
0.50588238 0.49803922 0.50980395
0.51372552 0.49803922 0.48627451
0.58039218 0.55686277 0.55686277
0.48235294 0.46666667 0.45098040
0.47058824 0.44705883 0.40000001
0.50588238 0.49019608 0.45490196
0.49019608 0.47058824 0.45098040
0.55686277 0.54901963 0.53333336
0.50196081 0.50588238 0.48627451
0.49411765 0.48627451 0.47058824
0.68235296 0.65882355 0.65490198
0.45490196 0.45098040 0.45098040
0.75686276 0.74117649 0.74117649
0.51372552 0.52549022 0.50980395
0.48627451 0.48627451 0.47843137
0.63137257 0.61960787 0.62352943
0.50980395 0.52156866 0.50588238
0.52156866 0.52549022 0.49411765
0.54901963 0.53725493 0.52549022
0.48235294 0.46666667 0.45882353
0.54901963 0.52549022 0.49019608
0.54509807 0.53725493 0.51764709
0.41176471 0.43529412 0.41568628
0.99215686 0.99215686 0.97647059
0.47058824 0.44313726 0.44313726
0.44705883 0.47450981 0.49019608
0.52156866 0.52156866 0.49803922
0.62745100 0.63921571 0.62352943
0.55294120 0.55294120 0.54117650
0.53725493 0.54117650 0.52549022
0.52549022 0.50196081 0.47058824
0.47450981 0.49411765 0.47450981
0.54901963 0.54901963 0.52941179
0.76862746 0.74509805 0.72156864
0.36862746 0.38039216 0.36862746
0.54117650 0.51764709 0.46666667
0.64705884 0.64313728 0.63137257
0.47843137 0.47843137 0.47058824
0.70588237 0.69019610 0.67450982
0.55294120 0.54901963 0.53725493
0.45882353 0.46274510 0.43921569
0.42352942 0.41176471 0.41960785
0.36470589 0.32156864 0.36078432
0.68235296 0.64313728 0.64705884
0.45490196 0.43137255 0.44313726
0.67058825 0.63921571 0.61960787
0.56078434 0.55294120 0.54901963
0.54117650 0.49803922 0.49019608
0.46274510 0.46666667 0.46274510
0.48627451 0.47843137 0.48627451
0.50980395 0.50980395 0.48627451
0.55686277 0.52549022 0.50588238
0.54509807 0.52549022 0.49803922
0.51764709 0.51372552 0.49019608
0.36862746 0.36862746 0.39607844
0.82352942 0.79215688 0.78823531
0.44313726 0.41176471 0.46666667
0.60000002 0.61568630 0.60784316
0.53333336 0.50980395 0.48627451
0.48235294 0.45098040 0.45098040
0.48235294 0.44313726 0.43137255
0.55294120 0.53725493 0.53333336
0.59607846 0.54117650 0.49411765
0.55294120 0.53725493 0.52941179
0.49803922 0.51764709 0.46274510
0.53725493 0.51372552 0.49019608
0.72156864 0.69019610 0.67843139
0.57647061 0.54901963 0.54901963
0.63921571 0.57647061 0.50980395
0.54117650 0.51764709 0.50980395
0.51372552 0.50196081 0.48627451
0.53333336 0.50588238 0.49019608
0.72156864 0.73725492 0.70980394
0.51764709 0.49803922 0.45882353